 Entering Gaussian System, Link 0=g16
 Input=5lo5-70M.gjf
 Output=5lo5-70M.log
 Initial command:
 /home/dddc/software/g16/g16/l1.exe "/home/dddc/software/g16/scr/Gau-208408.inp" -scrdir="/home/dddc/software/g16/scr/"
 Entering Link 1 = /home/dddc/software/g16/g16/l1.exe PID=    208409.
  
 Copyright (c) 1988-2017, Gaussian, Inc.  All Rights Reserved.
  
 This is part of the Gaussian(R) 16 program.  It is based on
 the Gaussian(R) 09 system (copyright 2009, Gaussian, Inc.),
 the Gaussian(R) 03 system (copyright 2003, Gaussian, Inc.),
 the Gaussian(R) 98 system (copyright 1998, Gaussian, Inc.),
 the Gaussian(R) 94 system (copyright 1995, Gaussian, Inc.),
 the Gaussian 92(TM) system (copyright 1992, Gaussian, Inc.),
 the Gaussian 90(TM) system (copyright 1990, Gaussian, Inc.),
 the Gaussian 88(TM) system (copyright 1988, Gaussian, Inc.),
 the Gaussian 86(TM) system (copyright 1986, Carnegie Mellon
 University), and the Gaussian 82(TM) system (copyright 1983,
 Carnegie Mellon University). Gaussian is a federally registered
 trademark of Gaussian, Inc.
  
 This software contains proprietary and confidential information,
 including trade secrets, belonging to Gaussian, Inc.
  
 This software is provided under written license and may be
 used, copied, transmitted, or stored only in accord with that
 written license.
  
 The following legend is applicable only to US Government
 contracts under FAR:
  
                    RESTRICTED RIGHTS LEGEND
  
 Use, reproduction and disclosure by the US Government is
 subject to restrictions as set forth in subparagraphs (a)
 and (c) of the Commercial Computer Software - Restricted
 Rights clause in FAR 52.227-19.
  
 Gaussian, Inc.
 340 Quinnipiac St., Bldg. 40, Wallingford CT 06492
  
  
 ---------------------------------------------------------------
 Warning -- This program may not be used in any manner that
 competes with the business of Gaussian, Inc. or will provide
 assistance to any competitor of Gaussian, Inc.  The licensee
 of this program is prohibited from giving any competitor of
 Gaussian, Inc. access to this program.  By using this program,
 the user acknowledges that Gaussian, Inc. is engaged in the
 business of creating and licensing software in the field of
 computational chemistry and represents and warrants to the
 licensee that it is not a competitor of Gaussian, Inc. and that
 it will not use this program in any manner prohibited above.
 ---------------------------------------------------------------
  

 Cite this work as:
 Gaussian 16, Revision B.01,
 M. J. Frisch, G. W. Trucks, H. B. Schlegel, G. E. Scuseria, 
 M. A. Robb, J. R. Cheeseman, G. Scalmani, V. Barone, 
 G. A. Petersson, H. Nakatsuji, X. Li, M. Caricato, A. V. Marenich, 
 J. Bloino, B. G. Janesko, R. Gomperts, B. Mennucci, H. P. Hratchian, 
 J. V. Ortiz, A. F. Izmaylov, J. L. Sonnenberg, D. Williams-Young, 
 F. Ding, F. Lipparini, F. Egidi, J. Goings, B. Peng, A. Petrone, 
 T. Henderson, D. Ranasinghe, V. G. Zakrzewski, J. Gao, N. Rega, 
 G. Zheng, W. Liang, M. Hada, M. Ehara, K. Toyota, R. Fukuda, 
 J. Hasegawa, M. Ishida, T. Nakajima, Y. Honda, O. Kitao, H. Nakai, 
 T. Vreven, K. Throssell, J. A. Montgomery, Jr., J. E. Peralta, 
 F. Ogliaro, M. J. Bearpark, J. J. Heyd, E. N. Brothers, K. N. Kudin, 
 V. N. Staroverov, T. A. Keith, R. Kobayashi, J. Normand, 
 K. Raghavachari, A. P. Rendell, J. C. Burant, S. S. Iyengar, 
 J. Tomasi, M. Cossi, J. M. Millam, M. Klene, C. Adamo, R. Cammi, 
 J. W. Ochterski, R. L. Martin, K. Morokuma, O. Farkas, 
 J. B. Foresman, and D. J. Fox, Gaussian, Inc., Wallingford CT, 2016.
 
 ******************************************
 Gaussian 16:  ES64L-G16RevB.01 20-Dec-2017
                30-Mar-2025 
 ******************************************
 %nproc=4
 Will use up to    4 processors via shared memory.
 %mem=4GB
 ----------------------------------------------------
 #B3LYP/6-31G* em=gd3bj pop=MK iop(6/33=2,6/42=6) opt
 ----------------------------------------------------
 1/18=20,19=15,26=3,38=1/1,3;
 2/9=110,12=2,17=6,18=5,40=1/2;
 3/5=1,6=6,7=1,11=2,25=1,30=1,71=1,74=-5,124=41/1,2,3;
 4//1;
 5/5=2,38=5/2;
 6/7=2,8=2,9=2,10=2,15=8,20=1,28=1,33=2,42=6/1,2;
 7//1,2,3,16;
 1/18=20,19=15,26=3/3(2);
 2/9=110/2;
 99//99;
 2/9=110/2;
 3/5=1,6=6,7=1,11=2,25=1,30=1,71=1,74=-5,124=41/1,2,3;
 4/5=5,16=3,69=1/1;
 5/5=2,38=5/2;
 7//1,2,3,16;
 1/18=20,19=15,26=3/3(-5);
 2/9=110/2;
 6/7=2,8=2,9=2,10=2,15=8,19=2,20=1,28=1,33=2,42=6/1,2;
 99/9=1/99;
 ---------------------
 remark line goes here
 ---------------------
 Symbolic Z-matrix:
 Charge =  0 Multiplicity = 1
 C                     0.51      33.795    25.351 
 C                    -0.687     33.417    26.055 
 C                     1.627     33.42     26.231 
 C                     1.054     32.855    27.372 
 C                     3.119     33.601    25.978 
 C                    -0.854     34.62     23.487 
 C                    -2.039     34.248    24.2 
 C                     3.566     32.968    24.645 
 C                    -0.963     35.215    22.187 
 C                     3.535     31.438    24.738 
 C                     4.228     30.82     23.512 
 C                     6.412     30.352    24.519 
 C                     7.713     31.393    22.128 
 C                     7.874     30.814    24.542 
 C                     10.649    31.153    24.265 
 C                     11.953    30.714    21.792 
 C                     0.418     34.396    24.066 
 N                    -0.311     32.86     27.256 
 C                    -1.952     33.654    25.467 
 O                    -3.255     34.469    23.644 
 N                    -1.064     35.666    21.15 
 N                     5.67      31.141    23.501 
 C                     6.237     30.945    22.14 
 N                     8.462     30.643    23.178 
 C                     9.88      30.796    23.11 
 C                     10.56     30.58     21.871 
 C                     12.039    31.285    24.184 
 C                     12.704    31.065    22.948 
 C                     14.128    31.188    22.876 
 N                     15.259    31.266    22.834 
 H                     1.604     32.472    28.219 
 H                     3.3574    34.6743   25.9429 
 H                     3.6889    33.1252   26.7897 
 H                     4.5895    33.3008   24.4176 
 H                     2.8864    33.3007   23.8466 
 H                     4.0591    31.1154   25.6497 
 H                     2.4908    31.0939   24.7741 
 H                     4.1103    29.7266   23.5367 
 H                     3.7712    31.2173   22.5936 
 H                     6.3692    29.2831   24.2628 
 H                     5.962     30.5097   25.5103 
 H                     8.1516    31.1838   21.1412 
 H                     7.7703    32.4721   22.3334 
 H                     7.9192    31.8734   24.8345 
 H                     8.4384    30.2091   25.267 
 H                     10.15     31.322    25.208 
 H                     12.457    30.55     20.851 
 H                     1.314     34.68     23.534 
 H                    -1.0766    32.4982   27.9581 
 H                    -2.852     33.377    25.995 
 H                     5.6661    31.5441   21.4153 
 H                     6.1744    29.8814   21.8665 
 H                     9.996     30.312    20.99 
 H                     12.607    31.554    25.062 
 H                     5.778     32.2019   23.7707 
 

 GradGradGradGradGradGradGradGradGradGradGradGradGradGradGradGradGradGrad
 Berny optimization.
 Initialization pass.
                           ----------------------------
                           !    Initial Parameters    !
                           ! (Angstroms and Degrees)  !
 --------------------------                            --------------------------
 ! Name  Definition              Value          Derivative Info.                !
 --------------------------------------------------------------------------------
 ! R1    R(1,2)                  1.4392         estimate D2E/DX2                !
 ! R2    R(1,3)                  1.4706         estimate D2E/DX2                !
 ! R3    R(1,17)                 1.4216         estimate D2E/DX2                !
 ! R4    R(2,18)                 1.3762         estimate D2E/DX2                !
 ! R5    R(2,19)                 1.415          estimate D2E/DX2                !
 ! R6    R(3,4)                  1.3962         estimate D2E/DX2                !
 ! R7    R(3,5)                  1.5241         estimate D2E/DX2                !
 ! R8    R(4,18)                 1.3699         estimate D2E/DX2                !
 ! R9    R(4,31)                 1.0801         estimate D2E/DX2                !
 ! R10   R(5,8)                  1.5419         estimate D2E/DX2                !
 ! R11   R(5,32)                 1.1            estimate D2E/DX2                !
 ! R12   R(5,33)                 1.1            estimate D2E/DX2                !
 ! R13   R(6,7)                  1.4321         estimate D2E/DX2                !
 ! R14   R(6,9)                  1.4338         estimate D2E/DX2                !
 ! R15   R(6,17)                 1.4154         estimate D2E/DX2                !
 ! R16   R(7,19)                 1.402          estimate D2E/DX2                !
 ! R17   R(7,20)                 1.3552         estimate D2E/DX2                !
 ! R18   R(8,10)                 1.5331         estimate D2E/DX2                !
 ! R19   R(8,34)                 1.1            estimate D2E/DX2                !
 ! R20   R(8,35)                 1.1            estimate D2E/DX2                !
 ! R21   R(9,21)                 1.1353         estimate D2E/DX2                !
 ! R22   R(10,11)                1.5379         estimate D2E/DX2                !
 ! R23   R(10,36)                1.1            estimate D2E/DX2                !
 ! R24   R(10,37)                1.1            estimate D2E/DX2                !
 ! R25   R(11,22)                1.4773         estimate D2E/DX2                !
 ! R26   R(11,38)                1.1            estimate D2E/DX2                !
 ! R27   R(11,39)                1.1            estimate D2E/DX2                !
 ! R28   R(12,14)                1.5334         estimate D2E/DX2                !
 ! R29   R(12,22)                1.4864         estimate D2E/DX2                !
 ! R30   R(12,40)                1.1            estimate D2E/DX2                !
 ! R31   R(12,41)                1.1            estimate D2E/DX2                !
 ! R32   R(13,23)                1.5425         estimate D2E/DX2                !
 ! R33   R(13,24)                1.492          estimate D2E/DX2                !
 ! R34   R(13,42)                1.1            estimate D2E/DX2                !
 ! R35   R(13,43)                1.1            estimate D2E/DX2                !
 ! R36   R(14,24)                1.4952         estimate D2E/DX2                !
 ! R37   R(14,44)                1.1            estimate D2E/DX2                !
 ! R38   R(14,45)                1.1            estimate D2E/DX2                !
 ! R39   R(15,25)                1.4328         estimate D2E/DX2                !
 ! R40   R(15,27)                1.3986         estimate D2E/DX2                !
 ! R41   R(15,46)                1.0802         estimate D2E/DX2                !
 ! R42   R(16,26)                1.4017         estimate D2E/DX2                !
 ! R43   R(16,28)                1.4225         estimate D2E/DX2                !
 ! R44   R(16,47)                1.08           estimate D2E/DX2                !
 ! R45   R(17,48)                1.08           estimate D2E/DX2                !
 ! R46   R(18,49)                1.1            estimate D2E/DX2                !
 ! R47   R(19,50)                1.0796         estimate D2E/DX2                !
 ! R48   R(22,23)                1.4874         estimate D2E/DX2                !
 ! R49   R(22,55)                1.1            estimate D2E/DX2                !
 ! R50   R(23,51)                1.1            estimate D2E/DX2                !
 ! R51   R(23,52)                1.1            estimate D2E/DX2                !
 ! R52   R(24,25)                1.4279         estimate D2E/DX2                !
 ! R53   R(25,26)                1.4297         estimate D2E/DX2                !
 ! R54   R(26,53)                1.0799         estimate D2E/DX2                !
 ! R55   R(27,28)                1.4207         estimate D2E/DX2                !
 ! R56   R(27,54)                1.0798         estimate D2E/DX2                !
 ! R57   R(28,29)                1.4311         estimate D2E/DX2                !
 ! R58   R(29,30)                1.1345         estimate D2E/DX2                !
 ! A1    A(2,1,3)              105.7857         estimate D2E/DX2                !
 ! A2    A(2,1,17)             119.9587         estimate D2E/DX2                !
 ! A3    A(3,1,17)             134.2553         estimate D2E/DX2                !
 ! A4    A(1,2,18)             107.8149         estimate D2E/DX2                !
 ! A5    A(1,2,19)             119.7551         estimate D2E/DX2                !
 ! A6    A(18,2,19)            132.4297         estimate D2E/DX2                !
 ! A7    A(1,3,4)              106.2889         estimate D2E/DX2                !
 ! A8    A(1,3,5)              127.8749         estimate D2E/DX2                !
 ! A9    A(4,3,5)              125.8361         estimate D2E/DX2                !
 ! A10   A(3,4,18)             109.7698         estimate D2E/DX2                !
 ! A11   A(3,4,31)             125.1249         estimate D2E/DX2                !
 ! A12   A(18,4,31)            125.1053         estimate D2E/DX2                !
 ! A13   A(3,5,8)              112.2446         estimate D2E/DX2                !
 ! A14   A(3,5,32)             109.4712         estimate D2E/DX2                !
 ! A15   A(3,5,33)             109.4703         estimate D2E/DX2                !
 ! A16   A(8,5,32)             108.0684         estimate D2E/DX2                !
 ! A17   A(8,5,33)             108.0693         estimate D2E/DX2                !
 ! A18   A(32,5,33)            109.4691         estimate D2E/DX2                !
 ! A19   A(7,6,9)              119.754          estimate D2E/DX2                !
 ! A20   A(7,6,17)             119.923          estimate D2E/DX2                !
 ! A21   A(9,6,17)             120.3228         estimate D2E/DX2                !
 ! A22   A(6,7,19)             120.5718         estimate D2E/DX2                !
 ! A23   A(6,7,20)             119.7241         estimate D2E/DX2                !
 ! A24   A(19,7,20)            119.7039         estimate D2E/DX2                !
 ! A25   A(5,8,10)             110.5726         estimate D2E/DX2                !
 ! A26   A(5,8,34)             108.9206         estimate D2E/DX2                !
 ! A27   A(5,8,35)             108.918          estimate D2E/DX2                !
 ! A28   A(10,8,34)            109.4678         estimate D2E/DX2                !
 ! A29   A(10,8,35)            109.4736         estimate D2E/DX2                !
 ! A30   A(34,8,35)            109.4691         estimate D2E/DX2                !
 ! A31   A(8,10,11)            110.0931         estimate D2E/DX2                !
 ! A32   A(8,10,36)            109.4705         estimate D2E/DX2                !
 ! A33   A(8,10,37)            109.4725         estimate D2E/DX2                !
 ! A34   A(11,10,36)           109.1582         estimate D2E/DX2                !
 ! A35   A(11,10,37)           109.1594         estimate D2E/DX2                !
 ! A36   A(36,10,37)           109.4718         estimate D2E/DX2                !
 ! A37   A(10,11,22)           111.005          estimate D2E/DX2                !
 ! A38   A(10,11,38)           109.47           estimate D2E/DX2                !
 ! A39   A(10,11,39)           109.4698         estimate D2E/DX2                !
 ! A40   A(22,11,38)           108.6985         estimate D2E/DX2                !
 ! A41   A(22,11,39)           108.7021         estimate D2E/DX2                !
 ! A42   A(38,11,39)           109.4712         estimate D2E/DX2                !
 ! A43   A(14,12,22)           109.0433         estimate D2E/DX2                !
 ! A44   A(14,12,40)           109.4725         estimate D2E/DX2                !
 ! A45   A(14,12,41)           109.4703         estimate D2E/DX2                !
 ! A46   A(22,12,40)           109.6859         estimate D2E/DX2                !
 ! A47   A(22,12,41)           109.6866         estimate D2E/DX2                !
 ! A48   A(40,12,41)           109.4678         estimate D2E/DX2                !
 ! A49   A(23,13,24)           109.2016         estimate D2E/DX2                !
 ! A50   A(23,13,42)           109.4683         estimate D2E/DX2                !
 ! A51   A(23,13,43)           109.47           estimate D2E/DX2                !
 ! A52   A(24,13,42)           109.6079         estimate D2E/DX2                !
 ! A53   A(24,13,43)           109.6081         estimate D2E/DX2                !
 ! A54   A(42,13,43)           109.4711         estimate D2E/DX2                !
 ! A55   A(12,14,24)           109.0753         estimate D2E/DX2                !
 ! A56   A(12,14,44)           109.4716         estimate D2E/DX2                !
 ! A57   A(12,14,45)           109.4744         estimate D2E/DX2                !
 ! A58   A(24,14,44)           109.6688         estimate D2E/DX2                !
 ! A59   A(24,14,45)           109.6692         estimate D2E/DX2                !
 ! A60   A(44,14,45)           109.4674         estimate D2E/DX2                !
 ! A61   A(25,15,27)           120.6805         estimate D2E/DX2                !
 ! A62   A(25,15,46)           119.6558         estimate D2E/DX2                !
 ! A63   A(27,15,46)           119.6637         estimate D2E/DX2                !
 ! A64   A(26,16,28)           120.1632         estimate D2E/DX2                !
 ! A65   A(26,16,47)           119.8926         estimate D2E/DX2                !
 ! A66   A(28,16,47)           119.9441         estimate D2E/DX2                !
 ! A67   A(1,17,6)             119.6586         estimate D2E/DX2                !
 ! A68   A(1,17,48)            120.1806         estimate D2E/DX2                !
 ! A69   A(6,17,48)            120.1608         estimate D2E/DX2                !
 ! A70   A(2,18,4)             110.3404         estimate D2E/DX2                !
 ! A71   A(2,18,49)            119.998          estimate D2E/DX2                !
 ! A72   A(4,18,49)            129.6616         estimate D2E/DX2                !
 ! A73   A(2,19,7)             120.1306         estimate D2E/DX2                !
 ! A74   A(2,19,50)            119.9391         estimate D2E/DX2                !
 ! A75   A(7,19,50)            119.9303         estimate D2E/DX2                !
 ! A76   A(11,22,12)           111.5193         estimate D2E/DX2                !
 ! A77   A(11,22,23)           110.5042         estimate D2E/DX2                !
 ! A78   A(11,22,55)           107.6727         estimate D2E/DX2                !
 ! A79   A(12,22,23)           111.4965         estimate D2E/DX2                !
 ! A80   A(12,22,55)           107.1589         estimate D2E/DX2                !
 ! A81   A(23,22,55)           108.3022         estimate D2E/DX2                !
 ! A82   A(13,23,22)           109.4884         estimate D2E/DX2                !
 ! A83   A(13,23,51)           109.4694         estimate D2E/DX2                !
 ! A84   A(13,23,52)           109.4719         estimate D2E/DX2                !
 ! A85   A(22,23,51)           109.4646         estimate D2E/DX2                !
 ! A86   A(22,23,52)           109.4656         estimate D2E/DX2                !
 ! A87   A(51,23,52)           109.4675         estimate D2E/DX2                !
 ! A88   A(13,24,14)           112.7747         estimate D2E/DX2                !
 ! A89   A(13,24,25)           114.2786         estimate D2E/DX2                !
 ! A90   A(14,24,25)           114.9451         estimate D2E/DX2                !
 ! A91   A(15,25,24)           121.4213         estimate D2E/DX2                !
 ! A92   A(15,25,26)           118.7478         estimate D2E/DX2                !
 ! A93   A(24,25,26)           119.8288         estimate D2E/DX2                !
 ! A94   A(16,26,25)           120.4689         estimate D2E/DX2                !
 ! A95   A(16,26,53)           119.7892         estimate D2E/DX2                !
 ! A96   A(25,26,53)           119.7419         estimate D2E/DX2                !
 ! A97   A(15,27,28)           120.0648         estimate D2E/DX2                !
 ! A98   A(15,27,54)           119.9491         estimate D2E/DX2                !
 ! A99   A(28,27,54)           119.9861         estimate D2E/DX2                !
 ! A100  A(16,28,27)           119.8743         estimate D2E/DX2                !
 ! A101  A(16,28,29)           120.3737         estimate D2E/DX2                !
 ! A102  A(27,28,29)           119.7503         estimate D2E/DX2                !
 ! A103  L(6,9,21,13,-1)       180.2743         estimate D2E/DX2                !
 ! A104  L(28,29,30,54,-1)     179.477          estimate D2E/DX2                !
 ! A105  L(6,9,21,13,-2)       178.6768         estimate D2E/DX2                !
 ! A106  L(28,29,30,54,-2)     178.5959         estimate D2E/DX2                !
 ! D1    D(3,1,2,18)            -0.0933         estimate D2E/DX2                !
 ! D2    D(3,1,2,19)           179.7564         estimate D2E/DX2                !
 ! D3    D(17,1,2,18)          179.7383         estimate D2E/DX2                !
 ! D4    D(17,1,2,19)           -0.412          estimate D2E/DX2                !
 ! D5    D(2,1,3,4)              0.1299         estimate D2E/DX2                !
 ! D6    D(2,1,3,5)           -179.7617         estimate D2E/DX2                !
 ! D7    D(17,1,3,4)          -179.6664         estimate D2E/DX2                !
 ! D8    D(17,1,3,5)             0.442          estimate D2E/DX2                !
 ! D9    D(2,1,17,6)             0.0538         estimate D2E/DX2                !
 ! D10   D(2,1,17,48)         -179.9271         estimate D2E/DX2                !
 ! D11   D(3,1,17,6)           179.8275         estimate D2E/DX2                !
 ! D12   D(3,1,17,48)           -0.1534         estimate D2E/DX2                !
 ! D13   D(1,2,18,4)             0.0211         estimate D2E/DX2                !
 ! D14   D(1,2,18,49)         -179.9795         estimate D2E/DX2                !
 ! D15   D(19,2,18,4)         -179.8021         estimate D2E/DX2                !
 ! D16   D(19,2,18,49)           0.1973         estimate D2E/DX2                !
 ! D17   D(1,2,19,7)             0.3577         estimate D2E/DX2                !
 ! D18   D(1,2,19,50)         -179.6367         estimate D2E/DX2                !
 ! D19   D(18,2,19,7)         -179.8362         estimate D2E/DX2                !
 ! D20   D(18,2,19,50)           0.1694         estimate D2E/DX2                !
 ! D21   D(1,3,4,18)            -0.1215         estimate D2E/DX2                !
 ! D22   D(1,3,4,31)           179.9065         estimate D2E/DX2                !
 ! D23   D(5,3,4,18)           179.7729         estimate D2E/DX2                !
 ! D24   D(5,3,4,31)            -0.199          estimate D2E/DX2                !
 ! D25   D(1,3,5,8)            -54.4431         estimate D2E/DX2                !
 ! D26   D(1,3,5,32)            65.5582         estimate D2E/DX2                !
 ! D27   D(1,3,5,33)          -174.4449         estimate D2E/DX2                !
 ! D28   D(4,3,5,8)            125.6852         estimate D2E/DX2                !
 ! D29   D(4,3,5,32)          -114.3134         estimate D2E/DX2                !
 ! D30   D(4,3,5,33)             5.6834         estimate D2E/DX2                !
 ! D31   D(3,4,18,2)             0.0655         estimate D2E/DX2                !
 ! D32   D(3,4,18,49)         -179.9339         estimate D2E/DX2                !
 ! D33   D(31,4,18,2)         -179.9626         estimate D2E/DX2                !
 ! D34   D(31,4,18,49)           0.0381         estimate D2E/DX2                !
 ! D35   D(3,5,8,10)           -71.0501         estimate D2E/DX2                !
 ! D36   D(3,5,8,34)           168.6208         estimate D2E/DX2                !
 ! D37   D(3,5,8,35)            49.2846         estimate D2E/DX2                !
 ! D38   D(32,5,8,10)          168.1362         estimate D2E/DX2                !
 ! D39   D(32,5,8,34)           47.8071         estimate D2E/DX2                !
 ! D40   D(32,5,8,35)          -71.5292         estimate D2E/DX2                !
 ! D41   D(33,5,8,10)           49.763          estimate D2E/DX2                !
 ! D42   D(33,5,8,34)          -70.5661         estimate D2E/DX2                !
 ! D43   D(33,5,8,35)          170.0977         estimate D2E/DX2                !
 ! D44   D(9,6,7,19)           179.4227         estimate D2E/DX2                !
 ! D45   D(9,6,7,20)            -0.4164         estimate D2E/DX2                !
 ! D46   D(17,6,7,19)           -0.4128         estimate D2E/DX2                !
 ! D47   D(17,6,7,20)          179.7481         estimate D2E/DX2                !
 ! D48   D(7,6,17,1)             0.3541         estimate D2E/DX2                !
 ! D49   D(7,6,17,48)         -179.665          estimate D2E/DX2                !
 ! D50   D(9,6,17,1)          -179.4805         estimate D2E/DX2                !
 ! D51   D(9,6,17,48)            0.5004         estimate D2E/DX2                !
 ! D52   D(6,7,19,2)             0.0519         estimate D2E/DX2                !
 ! D53   D(6,7,19,50)         -179.9538         estimate D2E/DX2                !
 ! D54   D(20,7,19,2)          179.891          estimate D2E/DX2                !
 ! D55   D(20,7,19,50)          -0.1146         estimate D2E/DX2                !
 ! D56   D(5,8,10,11)         -169.3367         estimate D2E/DX2                !
 ! D57   D(5,8,10,36)          -49.3386         estimate D2E/DX2                !
 ! D58   D(5,8,10,37)           70.6625         estimate D2E/DX2                !
 ! D59   D(34,8,10,11)         -49.3353         estimate D2E/DX2                !
 ! D60   D(34,8,10,36)          70.6628         estimate D2E/DX2                !
 ! D61   D(34,8,10,37)        -169.3362         estimate D2E/DX2                !
 ! D62   D(35,8,10,11)          70.6615         estimate D2E/DX2                !
 ! D63   D(35,8,10,36)        -169.3404         estimate D2E/DX2                !
 ! D64   D(35,8,10,37)         -49.3394         estimate D2E/DX2                !
 ! D65   D(8,10,11,22)          65.7442         estimate D2E/DX2                !
 ! D66   D(8,10,11,38)        -174.2572         estimate D2E/DX2                !
 ! D67   D(8,10,11,39)         -54.2588         estimate D2E/DX2                !
 ! D68   D(36,10,11,22)        -54.4428         estimate D2E/DX2                !
 ! D69   D(36,10,11,38)         65.5558         estimate D2E/DX2                !
 ! D70   D(36,10,11,39)       -174.4458         estimate D2E/DX2                !
 ! D71   D(37,10,11,22)       -174.0656         estimate D2E/DX2                !
 ! D72   D(37,10,11,38)        -54.067          estimate D2E/DX2                !
 ! D73   D(37,10,11,39)         65.9314         estimate D2E/DX2                !
 ! D74   D(10,11,22,12)         74.012          estimate D2E/DX2                !
 ! D75   D(10,11,22,23)       -161.3772         estimate D2E/DX2                !
 ! D76   D(10,11,22,55)        -43.2762         estimate D2E/DX2                !
 ! D77   D(38,11,22,12)        -46.4447         estimate D2E/DX2                !
 ! D78   D(38,11,22,23)         78.1661         estimate D2E/DX2                !
 ! D79   D(38,11,22,55)       -163.7329         estimate D2E/DX2                !
 ! D80   D(39,11,22,12)       -165.5292         estimate D2E/DX2                !
 ! D81   D(39,11,22,23)        -40.9184         estimate D2E/DX2                !
 ! D82   D(39,11,22,55)         77.1826         estimate D2E/DX2                !
 ! D83   D(22,12,14,24)        -57.925          estimate D2E/DX2                !
 ! D84   D(22,12,14,44)         62.0752         estimate D2E/DX2                !
 ! D85   D(22,12,14,45)       -177.9274         estimate D2E/DX2                !
 ! D86   D(40,12,14,24)         62.0772         estimate D2E/DX2                !
 ! D87   D(40,12,14,44)       -177.9226         estimate D2E/DX2                !
 ! D88   D(40,12,14,45)        -57.9252         estimate D2E/DX2                !
 ! D89   D(41,12,14,24)       -177.9267         estimate D2E/DX2                !
 ! D90   D(41,12,14,44)        -57.9266         estimate D2E/DX2                !
 ! D91   D(41,12,14,45)         62.0709         estimate D2E/DX2                !
 ! D92   D(14,12,22,11)       -175.1851         estimate D2E/DX2                !
 ! D93   D(14,12,22,23)         60.7619         estimate D2E/DX2                !
 ! D94   D(14,12,22,55)        -57.5866         estimate D2E/DX2                !
 ! D95   D(40,12,22,11)         64.9446         estimate D2E/DX2                !
 ! D96   D(40,12,22,23)        -59.1085         estimate D2E/DX2                !
 ! D97   D(40,12,22,55)       -177.457          estimate D2E/DX2                !
 ! D98   D(41,12,22,11)        -55.317          estimate D2E/DX2                !
 ! D99   D(41,12,22,23)       -179.37           estimate D2E/DX2                !
 ! D100  D(41,12,22,55)         62.2815         estimate D2E/DX2                !
 ! D101  D(24,13,23,22)         56.1356         estimate D2E/DX2                !
 ! D102  D(24,13,23,51)        176.1368         estimate D2E/DX2                !
 ! D103  D(24,13,23,52)        -63.8685         estimate D2E/DX2                !
 ! D104  D(42,13,23,22)        176.1363         estimate D2E/DX2                !
 ! D105  D(42,13,23,51)        -63.8625         estimate D2E/DX2                !
 ! D106  D(42,13,23,52)         56.1322         estimate D2E/DX2                !
 ! D107  D(43,13,23,22)        -63.8664         estimate D2E/DX2                !
 ! D108  D(43,13,23,51)         56.1349         estimate D2E/DX2                !
 ! D109  D(43,13,23,52)        176.1296         estimate D2E/DX2                !
 ! D110  D(23,13,24,14)        -56.7434         estimate D2E/DX2                !
 ! D111  D(23,13,24,25)        169.534          estimate D2E/DX2                !
 ! D112  D(42,13,24,14)       -176.6581         estimate D2E/DX2                !
 ! D113  D(42,13,24,25)         49.6192         estimate D2E/DX2                !
 ! D114  D(43,13,24,14)         63.1736         estimate D2E/DX2                !
 ! D115  D(43,13,24,25)        -70.5491         estimate D2E/DX2                !
 ! D116  D(12,14,24,13)         57.8081         estimate D2E/DX2                !
 ! D117  D(12,14,24,25)       -168.7902         estimate D2E/DX2                !
 ! D118  D(44,14,24,13)        -62.0703         estimate D2E/DX2                !
 ! D119  D(44,14,24,25)         71.3313         estimate D2E/DX2                !
 ! D120  D(45,14,24,13)        177.6902         estimate D2E/DX2                !
 ! D121  D(45,14,24,25)        -48.9081         estimate D2E/DX2                !
 ! D122  D(27,15,25,24)        179.323          estimate D2E/DX2                !
 ! D123  D(27,15,25,26)         -0.1457         estimate D2E/DX2                !
 ! D124  D(46,15,25,24)         -0.6817         estimate D2E/DX2                !
 ! D125  D(46,15,25,26)        179.8496         estimate D2E/DX2                !
 ! D126  D(25,15,27,28)          0.0097         estimate D2E/DX2                !
 ! D127  D(25,15,27,54)       -179.9657         estimate D2E/DX2                !
 ! D128  D(46,15,27,28)       -179.9856         estimate D2E/DX2                !
 ! D129  D(46,15,27,54)          0.039          estimate D2E/DX2                !
 ! D130  D(28,16,26,25)          0.1003         estimate D2E/DX2                !
 ! D131  D(28,16,26,53)       -179.9164         estimate D2E/DX2                !
 ! D132  D(47,16,26,25)       -179.9164         estimate D2E/DX2                !
 ! D133  D(47,16,26,53)          0.067          estimate D2E/DX2                !
 ! D134  D(26,16,28,27)         -0.238          estimate D2E/DX2                !
 ! D135  D(26,16,28,29)        179.28           estimate D2E/DX2                !
 ! D136  D(47,16,28,27)        179.7787         estimate D2E/DX2                !
 ! D137  D(47,16,28,29)         -0.7033         estimate D2E/DX2                !
 ! D138  D(11,22,23,13)        175.5158         estimate D2E/DX2                !
 ! D139  D(11,22,23,51)         55.5116         estimate D2E/DX2                !
 ! D140  D(11,22,23,52)        -64.4762         estimate D2E/DX2                !
 ! D141  D(12,22,23,13)        -59.8603         estimate D2E/DX2                !
 ! D142  D(12,22,23,51)       -179.8646         estimate D2E/DX2                !
 ! D143  D(12,22,23,52)         60.1476         estimate D2E/DX2                !
 ! D144  D(55,22,23,13)         57.8007         estimate D2E/DX2                !
 ! D145  D(55,22,23,51)        -62.2035         estimate D2E/DX2                !
 ! D146  D(55,22,23,52)        177.8087         estimate D2E/DX2                !
 ! D147  D(13,24,25,15)        129.7261         estimate D2E/DX2                !
 ! D148  D(13,24,25,26)        -50.8109         estimate D2E/DX2                !
 ! D149  D(14,24,25,15)         -2.9747         estimate D2E/DX2                !
 ! D150  D(14,24,25,26)        176.4883         estimate D2E/DX2                !
 ! D151  D(15,25,26,16)          0.0901         estimate D2E/DX2                !
 ! D152  D(15,25,26,53)       -179.8932         estimate D2E/DX2                !
 ! D153  D(24,25,26,16)       -179.3872         estimate D2E/DX2                !
 ! D154  D(24,25,26,53)          0.6294         estimate D2E/DX2                !
 ! D155  D(15,27,28,16)          0.1827         estimate D2E/DX2                !
 ! D156  D(15,27,28,29)       -179.3384         estimate D2E/DX2                !
 ! D157  D(54,27,28,16)       -179.842          estimate D2E/DX2                !
 ! D158  D(54,27,28,29)          0.637          estimate D2E/DX2                !
 --------------------------------------------------------------------------------
 Trust Radius=3.00D-01 FncErr=1.00D-07 GrdErr=1.00D-06 EigMax=2.50D+02 EigMin=1.00D-04
 Number of steps in this run=    330 maximum allowed number of steps=    330.
 GradGradGradGradGradGradGradGradGradGradGradGradGradGradGradGradGradGrad

 Stoichiometry    C24H25N5O
 Framework group  C1[X(C24H25N5O)]
 Deg. of freedom   159
 Full point group                 C1      NOp   1
 Largest Abelian subgroup         C1      NOp   1
 Largest concise Abelian subgroup C1      NOp   1
                         Standard orientation:                         
 ---------------------------------------------------------------------
 Center     Atomic      Atomic             Coordinates (Angstroms)
 Number     Number       Type             X           Y           Z
 ---------------------------------------------------------------------
      1          6           0        4.741874   -0.646342   -0.555209
      2          6           0        5.893019   -1.346919   -0.049873
      3          6           0        3.689405   -1.662398   -0.705723
      4          6           0        4.251020   -2.872132   -0.292727
      5          6           0        2.264724   -1.466214   -1.210331
      6          6           0        6.014297    1.450304   -0.530039
      7          6           0        7.156485    0.741846   -0.035596
      8          6           0        1.512310   -0.373811   -0.424255
      9          6           0        6.095871    2.864267   -0.753553
     10          6           0        1.186830   -0.857849    0.993588
     11          6           0        0.214957    0.119728    1.675538
     12          6           0       -1.870406   -1.110434    1.300177
     13          6           0       -3.178085    1.381209    0.541985
     14          6           0       -3.163509   -1.105554    0.475995
     15          6           0       -5.788002   -0.926607   -0.510051
     16          6           0       -7.464243    1.260457    0.134799
     17          6           0        4.810445    0.753642   -0.792343
     18          7           0        5.550973   -2.672543    0.090669
     19          6           0        7.092105   -0.638659    0.200525
     20          8           0        8.308666    1.412015    0.209324
     21          7           0        6.168794    3.986945   -0.906028
     22          7           0       -1.097084    0.122114    0.996518
     23          6           0       -1.863676    1.347111    1.348577
     24          7           0       -3.944693    0.127480    0.799815
     25          6           0       -5.281242    0.142800    0.297660
     26          6           0       -6.145787    1.237874    0.609992
     27          6           0       -7.104307   -0.902424   -0.982113
     28          6           0       -7.954994    0.189673   -0.662774
     29          6           0       -9.305028    0.200696   -1.137512
     30          7           0      -10.380067    0.189714   -1.499701
     31          1           0        3.738054   -3.822527   -0.278111
     32          1           0        2.288410   -1.169436   -2.269294
     33          1           0        1.705825   -2.407890   -1.105893
     34          1           0        0.578182   -0.133286   -0.953000
     35          1           0        2.144133    0.524926   -0.368922
     36          1           0        0.721552   -1.853311    0.943398
     37          1           0        2.113721   -0.915618    1.583162
     38          1           0        0.068966   -0.179882    2.723826
     39          1           0        0.632543    1.136735    1.639615
     40          1           0       -2.118489   -1.137717    2.371498
     41          1           0       -1.272839   -1.996458    1.039561
     42          1           0       -3.776465    2.250276    0.852744
     43          1           0       -2.947998    1.459176   -0.530820
     44          1           0       -2.915376   -1.115869   -0.595570
     45          1           0       -3.759178   -1.996767    0.722966
     46          1           0       -5.146742   -1.760048   -0.756977
     47          1           0       -8.108860    2.092949    0.375256
     48          1           0        3.948379    1.283171   -1.170414
     49          1           0        6.290616   -3.394428    0.467228
     50          1           0        7.959189   -1.162266    0.574041
     51          1           0       -1.263106    2.236944    1.108681
     52          1           0       -2.093645    1.339129    2.424225
     53          1           0       -5.779931    2.053272    1.216092
     54          1           0       -7.474156   -1.714925   -1.589503
     55          1           0       -0.911939    0.130183   -0.087717
 ---------------------------------------------------------------------
 Rotational constants (GHZ):           0.4207652           0.0399945           0.0381429
 Standard basis: 6-31G(d) (6D, 7F)
 There are   500 symmetry adapted cartesian basis functions of A   symmetry.
 There are   500 symmetry adapted basis functions of A   symmetry.
   500 basis functions,   940 primitive gaussians,   500 cartesian basis functions
   106 alpha electrons      106 beta electrons
       nuclear repulsion energy      2515.6645104953 Hartrees.
 NAtoms=   55 NActive=   55 NUniq=   55 SFac= 1.00D+00 NAtFMM=   60 NAOKFM=F Big=F
 Integral buffers will be    131072 words long.
 Raffenetti 2 integral format.
 Two-electron integral symmetry is turned on.
 Nuclear repulsion after empirical dispersion term =     2515.5421159675 Hartrees.
 One-electron integrals computed using PRISM.
 NBasis=   500 RedAO= T EigKep=  3.55D-04  NBF=   500
 NBsUse=   500 1.00D-06 EigRej= -1.00D+00 NBFU=   500
 ExpMin= 1.61D-01 ExpMax= 5.48D+03 ExpMxC= 8.25D+02 IAcc=3 IRadAn=         5 AccDes= 0.00D+00
 Harris functional with IExCor=  402 and IRadAn=       5 diagonalized for initial guess.
 HarFok:  IExCor=  402 AccDes= 0.00D+00 IRadAn=         5 IDoV= 1 UseB2=F ITyADJ=14
 ICtDFT=  3500011 ScaDFX=  1.000000  1.000000  1.000000  1.000000
 FoFCou: FMM=F IPFlag=           0 FMFlag=      100000 FMFlg1=           0
         NFxFlg=           0 DoJE=T BraDBF=F KetDBF=T FulRan=T
         wScrn=  0.000000 ICntrl=       500 IOpCl=  0 I1Cent=   200000004 NGrid=           0
         NMat0=    1 NMatS0=      1 NMatT0=    0 NMatD0=    1 NMtDS0=    0 NMtDT0=    0
 Petite list used in FoFCou.
 Requested convergence on RMS density matrix=1.00D-08 within 128 cycles.
 Requested convergence on MAX density matrix=1.00D-06.
 Requested convergence on             energy=1.00D-06.
 No special actions if energy rises.
 Integral accuracy reduced to 1.0D-05 until final iterations.
 EnCoef did     3 forward-backward iterations
 EnCoef did     2 forward-backward iterations
 EnCoef did     4 forward-backward iterations
 EnCoef did     9 forward-backward iterations
 Problem detected with inexpensive integrals.
 Switching to full accuracy and repeating last cycle.
 EnCoef did     3 forward-backward iterations
 EnCoef did     2 forward-backward iterations
 EnCoef did     1 forward-backward iterations
 Restarting incremental Fock formation.
 SCF Done:  E(RB3LYP) =  -1278.52927341     A.U. after   36 cycles
            NFock= 36  Conv=0.85D-08     -V/T= 2.0101
 SCF density gives NOpUse=  1 NOpAll=  1.

 **********************************************************************

            Population analysis using the SCF Density.

 **********************************************************************

 Orbital symmetries:
 BldTbl:  Degeneracy threshold= 1.00D-02
       Occupied  (A) (A) (A) (A) (A) (A) (A) (A) (A) (A) (A) (A)
                 (A) (A) (A) (A) (A) (A) (A) (A) (A) (A) (A) (A)
                 (A) (A) (A) (A) (A) (A) (A) (A) (A) (A) (A) (A)
                 (A) (A) (A) (A) (A) (A) (A) (A) (A) (A) (A) (A)
                 (A) (A) (A) (A) (A) (A) (A) (A) (A) (A) (A) (A)
                 (A) (A) (A) (A) (A) (A) (A) (A) (A) (A) (A) (A)
                 (A) (A) (A) (A) (A) (A) (A) (A) (A) (A) (A) (A)
                 (A) (A) (A) (A) (A) (A) (A) (A) (A) (A) (A) (A)
                 (A) (A) (A) (A) (A) (A) (A) (A) (A) (A)
       Virtual   (A) (A) (A) (A) (A) (A) (A) (A) (A) (A) (A) (A)
                 (A) (A) (A) (A) (A) (A) (A) (A) (A) (A) (A) (A)
                 (A) (A) (A) (A) (A) (A) (A) (A) (A) (A) (A) (A)
                 (A) (A) (A) (A) (A) (A) (A) (A) (A) (A) (A) (A)
                 (A) (A) (A) (A) (A) (A) (A) (A) (A) (A) (A) (A)
                 (A) (A) (A) (A) (A) (A) (A) (A) (A) (A) (A) (A)
                 (A) (A) (A) (A) (A) (A) (A) (A) (A) (A) (A) (A)
                 (A) (A) (A) (A) (A) (A) (A) (A) (A) (A) (A) (A)
                 (A) (A) (A) (A) (A) (A) (A) (A) (A) (A) (A) (A)
                 (A) (A) (A) (A) (A) (A) (A) (A) (A) (A) (A) (A)
                 (A) (A) (A) (A) (A) (A) (A) (A) (A) (A) (A) (A)
                 (A) (A) (A) (A) (A) (A) (A) (A) (A) (A) (A) (A)
                 (A) (A) (A) (A) (A) (A) (A) (A) (A) (A) (A) (A)
                 (A) (A) (A) (A) (A) (A) (A) (A) (A) (A) (A) (A)
                 (A) (A) (A) (A) (A) (A) (A) (A) (A) (A) (A) (A)
                 (A) (A) (A) (A) (A) (A) (A) (A) (A) (A) (A) (A)
                 (A) (A) (A) (A) (A) (A) (A) (A) (A) (A) (A) (A)
                 (A) (A) (A) (A) (A) (A) (A) (A) (A) (A) (A) (A)
                 (A) (A) (A) (A) (A) (A) (A) (A) (A) (A) (A) (A)
                 (A) (A) (A) (A) (A) (A) (A) (A) (A) (A) (A) (A)
                 (A) (A) (A) (A) (A) (A) (A) (A) (A) (A) (A) (A)
                 (A) (A) (A) (A) (A) (A) (A) (A) (A) (A) (A) (A)
                 (A) (A) (A) (A) (A) (A) (A) (A) (A) (A) (A) (A)
                 (A) (A) (A) (A) (A) (A) (A) (A) (A) (A) (A) (A)
                 (A) (A) (A) (A) (A) (A) (A) (A) (A) (A) (A) (A)
                 (A) (A) (A) (A) (A) (A) (A) (A) (A) (A) (A) (A)
                 (A) (A) (A) (A) (A) (A) (A) (A) (A) (A) (A) (A)
                 (A) (A) (A) (A) (A) (A) (A) (A) (A) (A) (A) (A)
                 (A) (A) (A) (A) (A) (A) (A) (A) (A) (A) (A) (A)
                 (A) (A) (A) (A) (A) (A) (A) (A) (A) (A) (A) (A)
                 (A) (A) (A) (A) (A) (A) (A) (A) (A) (A) (A) (A)
                 (A) (A) (A) (A) (A) (A) (A) (A) (A) (A) (A) (A)
                 (A) (A) (A) (A) (A) (A) (A) (A) (A) (A)
 The electronic state is 1-A.
 Alpha  occ. eigenvalues --  -18.97217 -14.56304 -14.43923 -14.35218 -14.35194
 Alpha  occ. eigenvalues --  -14.24163 -10.34618 -10.34612 -10.32473 -10.32448
 Alpha  occ. eigenvalues --  -10.32408 -10.30272 -10.27317 -10.26064 -10.26007
 Alpha  occ. eigenvalues --  -10.25752 -10.25742 -10.25574 -10.24562 -10.23461
 Alpha  occ. eigenvalues --  -10.20810 -10.19131 -10.17343 -10.16289 -10.15139
 Alpha  occ. eigenvalues --  -10.15050 -10.14061 -10.13929 -10.13860 -10.10708
 Alpha  occ. eigenvalues --   -1.12383  -1.02269  -0.93958  -0.93765  -0.90822
 Alpha  occ. eigenvalues --   -0.89349  -0.88119  -0.84068  -0.83626  -0.82382
 Alpha  occ. eigenvalues --   -0.81151  -0.80466  -0.78212  -0.77073  -0.76518
 Alpha  occ. eigenvalues --   -0.74436  -0.72340  -0.69516  -0.68969  -0.68022
 Alpha  occ. eigenvalues --   -0.67221  -0.64997  -0.63532  -0.62628  -0.61563
 Alpha  occ. eigenvalues --   -0.60209  -0.59444  -0.58849  -0.57811  -0.56939
 Alpha  occ. eigenvalues --   -0.56174  -0.54206  -0.52562  -0.52349  -0.51857
 Alpha  occ. eigenvalues --   -0.51395  -0.50482  -0.50057  -0.49438  -0.48828
 Alpha  occ. eigenvalues --   -0.48359  -0.48044  -0.47618  -0.46973  -0.46357
 Alpha  occ. eigenvalues --   -0.46333  -0.44531  -0.43727  -0.42945  -0.42564
 Alpha  occ. eigenvalues --   -0.41343  -0.40933  -0.39136  -0.38952  -0.38891
 Alpha  occ. eigenvalues --   -0.38295  -0.37913  -0.37416  -0.36965  -0.36284
 Alpha  occ. eigenvalues --   -0.36067  -0.34254  -0.33621  -0.31437  -0.31125
 Alpha  occ. eigenvalues --   -0.29895  -0.27858  -0.27514  -0.26300  -0.25792
 Alpha  occ. eigenvalues --   -0.24480  -0.23407  -0.19421  -0.16489  -0.11206
 Alpha  occ. eigenvalues --   -0.09373
 Alpha virt. eigenvalues --   -0.08559  -0.06778  -0.06031  -0.01435   0.00044
 Alpha virt. eigenvalues --    0.00944   0.01946   0.01990   0.02321   0.02574
 Alpha virt. eigenvalues --    0.02829   0.03951   0.04325   0.05419   0.06117
 Alpha virt. eigenvalues --    0.06306   0.07103   0.07480   0.08029   0.08053
 Alpha virt. eigenvalues --    0.08421   0.09032   0.09728   0.10367   0.10625
 Alpha virt. eigenvalues --    0.11385   0.11579   0.11753   0.12404   0.12802
 Alpha virt. eigenvalues --    0.13218   0.13515   0.14290   0.14675   0.14908
 Alpha virt. eigenvalues --    0.15545   0.16012   0.17015   0.17382   0.17884
 Alpha virt. eigenvalues --    0.18423   0.19538   0.19999   0.20549   0.20919
 Alpha virt. eigenvalues --    0.21450   0.23653   0.24880   0.25059   0.25906
 Alpha virt. eigenvalues --    0.26673   0.27697   0.27833   0.29646   0.30273
 Alpha virt. eigenvalues --    0.30646   0.32500   0.34586   0.35894   0.37795
 Alpha virt. eigenvalues --    0.38315   0.39708   0.39902   0.40290   0.42306
 Alpha virt. eigenvalues --    0.42680   0.43251   0.44407   0.45101   0.45455
 Alpha virt. eigenvalues --    0.46138   0.46619   0.47209   0.47731   0.48284
 Alpha virt. eigenvalues --    0.48721   0.49609   0.49804   0.50220   0.50853
 Alpha virt. eigenvalues --    0.51115   0.52674   0.52767   0.54249   0.54378
 Alpha virt. eigenvalues --    0.55076   0.55762   0.56023   0.56203   0.56609
 Alpha virt. eigenvalues --    0.57417   0.57952   0.58648   0.59112   0.59519
 Alpha virt. eigenvalues --    0.60548   0.61118   0.61665   0.62303   0.62336
 Alpha virt. eigenvalues --    0.62858   0.63519   0.63769   0.64486   0.64886
 Alpha virt. eigenvalues --    0.65055   0.65570   0.66087   0.66995   0.67382
 Alpha virt. eigenvalues --    0.68102   0.69439   0.69709   0.69872   0.70289
 Alpha virt. eigenvalues --    0.71463   0.71824   0.72019   0.72723   0.73603
 Alpha virt. eigenvalues --    0.74040   0.74503   0.74852   0.75001   0.75461
 Alpha virt. eigenvalues --    0.76113   0.77173   0.78223   0.79076   0.79378
 Alpha virt. eigenvalues --    0.79985   0.80573   0.80675   0.81277   0.81615
 Alpha virt. eigenvalues --    0.82014   0.82337   0.82536   0.82694   0.83676
 Alpha virt. eigenvalues --    0.83763   0.84550   0.85092   0.85116   0.85757
 Alpha virt. eigenvalues --    0.86769   0.86838   0.87371   0.88115   0.88481
 Alpha virt. eigenvalues --    0.89448   0.89720   0.90642   0.91243   0.92107
 Alpha virt. eigenvalues --    0.92428   0.92657   0.93283   0.93655   0.93862
 Alpha virt. eigenvalues --    0.94374   0.96008   0.96087   0.96832   0.98831
 Alpha virt. eigenvalues --    1.00145   1.01512   1.01994   1.03609   1.04183
 Alpha virt. eigenvalues --    1.05599   1.05894   1.06251   1.08145   1.09001
 Alpha virt. eigenvalues --    1.09794   1.10809   1.12496   1.13064   1.14774
 Alpha virt. eigenvalues --    1.15855   1.16281   1.17293   1.18059   1.18401
 Alpha virt. eigenvalues --    1.19252   1.19763   1.21051   1.22131   1.23389
 Alpha virt. eigenvalues --    1.24632   1.25749   1.27750   1.30424   1.30736
 Alpha virt. eigenvalues --    1.31670   1.32027   1.33820   1.34862   1.36036
 Alpha virt. eigenvalues --    1.37895   1.38277   1.38658   1.38997   1.40525
 Alpha virt. eigenvalues --    1.40617   1.41731   1.42859   1.44034   1.44915
 Alpha virt. eigenvalues --    1.45757   1.47130   1.48153   1.49439   1.50129
 Alpha virt. eigenvalues --    1.50415   1.50547   1.52124   1.52240   1.53348
 Alpha virt. eigenvalues --    1.54706   1.57303   1.57760   1.59197   1.59915
 Alpha virt. eigenvalues --    1.60909   1.62136   1.62960   1.64214   1.65642
 Alpha virt. eigenvalues --    1.66969   1.69012   1.71359   1.72138   1.72910
 Alpha virt. eigenvalues --    1.73641   1.74312   1.74801   1.75539   1.76422
 Alpha virt. eigenvalues --    1.77618   1.78334   1.78780   1.79833   1.80892
 Alpha virt. eigenvalues --    1.81372   1.82201   1.83063   1.83364   1.84224
 Alpha virt. eigenvalues --    1.86127   1.86578   1.86908   1.87878   1.88413
 Alpha virt. eigenvalues --    1.88965   1.89084   1.90466   1.90624   1.91480
 Alpha virt. eigenvalues --    1.92194   1.93258   1.93767   1.94405   1.94574
 Alpha virt. eigenvalues --    1.95032   1.96654   1.97054   1.97476   1.97969
 Alpha virt. eigenvalues --    1.98170   1.99658   2.00901   2.01324   2.02268
 Alpha virt. eigenvalues --    2.02489   2.02980   2.03817   2.04707   2.05390
 Alpha virt. eigenvalues --    2.05698   2.06342   2.06658   2.07435   2.08439
 Alpha virt. eigenvalues --    2.09751   2.10327   2.10976   2.11441   2.13227
 Alpha virt. eigenvalues --    2.14235   2.15202   2.15517   2.17060   2.19119
 Alpha virt. eigenvalues --    2.19813   2.20964   2.21800   2.22164   2.22947
 Alpha virt. eigenvalues --    2.23987   2.24666   2.25544   2.27066   2.29591
 Alpha virt. eigenvalues --    2.30821   2.31683   2.32656   2.33090   2.34875
 Alpha virt. eigenvalues --    2.36697   2.36902   2.38630   2.39954   2.42754
 Alpha virt. eigenvalues --    2.43121   2.44334   2.44437   2.45619   2.46348
 Alpha virt. eigenvalues --    2.48678   2.51978   2.53155   2.54300   2.54970
 Alpha virt. eigenvalues --    2.55810   2.56302   2.57158   2.60411   2.61404
 Alpha virt. eigenvalues --    2.61870   2.62676   2.63049   2.64963   2.65592
 Alpha virt. eigenvalues --    2.67672   2.69633   2.70487   2.70865   2.71588
 Alpha virt. eigenvalues --    2.74174   2.77049   2.78217   2.80077   2.80840
 Alpha virt. eigenvalues --    2.82321   2.82867   2.83015   2.89434   2.91904
 Alpha virt. eigenvalues --    2.93434   2.94527   2.96375   2.96682   2.97663
 Alpha virt. eigenvalues --    3.09316   3.13105   3.13554   3.17964   3.23116
 Alpha virt. eigenvalues --    3.35459   3.37857   3.40683   3.53933   3.93245
 Alpha virt. eigenvalues --    4.00154   4.00758   4.04550   4.04929   4.05510
 Alpha virt. eigenvalues --    4.07020   4.11150   4.11649   4.15035   4.17355
 Alpha virt. eigenvalues --    4.18211   4.19308   4.25184   4.26478   4.28015
 Alpha virt. eigenvalues --    4.28254   4.32334   4.35214   4.37361   4.39708
 Alpha virt. eigenvalues --    4.42042   4.42283   4.50619   4.51906   4.52756
 Alpha virt. eigenvalues --    4.67970   4.69693   4.74706   4.94331
          Condensed to atoms (all electrons):
 Mulliken charges:
               1
     1  C    0.053170
     2  C    0.334014
     3  C    0.033672
     4  C   -0.015723
     5  C   -0.335359
     6  C    0.031851
     7  C    0.377964
     8  C   -0.285710
     9  C    0.244036
    10  C   -0.297346
    11  C   -0.170913
    12  C   -0.177929
    13  C   -0.166526
    14  C   -0.167094
    15  C   -0.189532
    16  C   -0.139685
    17  C   -0.266466
    18  N   -0.707832
    19  C   -0.262695
    20  O   -0.688410
    21  N   -0.512199
    22  N   -0.485667
    23  C   -0.171188
    24  N   -0.508302
    25  C    0.325412
    26  C   -0.179737
    27  C   -0.145828
    28  C    0.121033
    29  C    0.227920
    30  N   -0.452000
    31  H    0.114223
    32  H    0.155576
    33  H    0.115000
    34  H    0.080226
    35  H    0.195735
    36  H    0.146451
    37  H    0.225664
    38  H    0.199014
    39  H    0.210806
    40  H    0.218140
    41  H    0.218501
    42  H    0.203703
    43  H    0.166927
    44  H    0.162400
    45  H    0.208778
    46  H    0.143744
    47  H    0.173345
    48  H    0.090994
    49  H    0.322007
    50  H    0.091140
    51  H    0.219084
    52  H    0.217382
    53  H    0.145543
    54  H    0.173215
    55  H    0.379469
 Sum of Mulliken charges =  -0.00000
 Mulliken charges with hydrogens summed into heavy atoms:
               1
     1  C    0.053170
     2  C    0.334014
     3  C    0.033672
     4  C    0.098500
     5  C   -0.064783
     6  C    0.031851
     7  C    0.377964
     8  C   -0.009749
     9  C    0.244036
    10  C    0.074769
    11  C    0.238907
    12  C    0.258712
    13  C    0.204105
    14  C    0.204084
    15  C   -0.045788
    16  C    0.033660
    17  C   -0.175472
    18  N   -0.385825
    19  C   -0.171555
    20  O   -0.688410
    21  N   -0.512199
    22  N   -0.106199
    23  C    0.265279
    24  N   -0.508302
    25  C    0.325412
    26  C   -0.034194
    27  C    0.027387
    28  C    0.121033
    29  C    0.227920
    30  N   -0.452000
 DipInt: DoE/N= T F RetVal/Mat= T F Init=T NMatP=  1 IDeriv=0 Min/MaxMlt=  0  4
 Entering OneElI...
 OneElI was handed   536233098 working-precision words.
 Multipole integrals L=0 to 4 MinM= 0 MaxM= 0.
 Requested accuracy = 0.1000D-12
 PrtBox:  NBox=     1 Levels=  1 BoxLen=   35.86 SMaxX=       35.32
          Shift=           19.615483            7.223529            4.288344
 Box      1 Number                   0 centers from      1 to    170:
 ShPair: Thresh= 1.00D-13 NBox=     1 BxSize= 3.59D+01 RnKept= 2.13D+01
         NSMCal=                14535 NSMKep=                8452
 PrmmSu-InSpLW:  IPartL=    0 NPrtUS=    1 NPrtUL=    1 DoSpLW=F IThBeg=    0 IThEnd=    0 NThAct=    1.
 PrSmSu:  IncTry=   512 NBBP=           8452 NTPThr=   100 NPartT=    1 Incr=          84 LDynOK=F GPUOK=F.
 PrsmSu:  NPrtUS=   1 ThrOK=F IAlg=2 LenDen=           0 ISkipM=0 DoSpLW=F IThBeg=    0 IThEnd=    0.
 Prism:   IPart=     0 DynPar=F LinDyn=F Incr=          84.
 PRISM was handed   535446990 working-precision words and  8452 shell-pairs
 IPart=  0 NShTot=        8452 NBatch=          76 AvBLen=       111.2
 PrsmSu-ThDecC:  IPartSL=    0    0 NPrtUSL=    1    1 IThBeg=    0 IThEnd=    0 CPU=   -1 GPU=   -1 NThAct=    1.
 PrSmSu:  NxtVal=             85.
 Electronic moments (au):
       -212.00000000        -10.89035376         -3.61290046          2.64797685
     -23054.46349402      -1901.65153851       -730.33958770        -53.99101820
         -6.28757951          4.74590201      48919.54138910      -1681.62171381
       -293.28533296     -11254.14787303     -13704.73707608      17647.62404740
       1941.56575939        -80.15899889        919.65120334       2145.30146857
   -4506519.20361150     -55533.76798358      -7076.39022882     -75179.03769126
    -224030.28272457     -23360.06900622       5058.96002582      -1903.05604196
       -262.66688894    -201271.66487422     -69719.25051256      -5341.10638766
      11458.75347572      14463.30979173      -1507.49884569
 Electronic spatial extent (au):  <R**2>=          25686.4546
 DipInt: DoE/N= F T RetVal/Mat= T F Init=T NMatP=  1 IDeriv=0 Min/MaxMlt=  0  4
 Nuclear    moments (au):
        212.00000000         -0.00000000          0.00000000         -0.00000000
      22730.39913227       1764.63857885        601.99943139          0.00000000
          0.00000000          0.00000000     -49905.10268160       1457.36985167
        346.36004859      10951.06853835      12984.42456180     -17336.96436140
      -1940.86406343         74.44119052       -851.75541084      -2169.25757283
    4359759.81871275      47761.87355314       4564.19132748      64837.92090567
     219493.89976730      20527.19484423      -4755.97347860       1825.10175318
        289.23559367     184178.27243666      54038.78054432       3721.48253737
     -10804.26949673     -13962.19053146       1499.16122629
 Total      moments (au):
         -0.00000000        -10.89035376         -3.61290046          2.64797685
       -324.06436175       -137.01295966       -128.34015631        -53.99101820
         -6.28757951          4.74590201       -985.56129250       -224.25186214
         53.07471562       -303.07933468       -720.31251429        310.65968599
          0.70169597         -5.71780837         67.89579251        -23.95610426
    -146759.38489874      -7771.89443043      -2512.19890134     -10341.11678560
      -4536.38295727      -2832.87416199        302.98654722        -77.95428879
         26.56870473     -17093.39243757     -15680.46996824      -1619.62385029
        654.48397899        501.11926027         -8.33761940
 Traceless Quadrup. (au):
       -127.59186918         59.45953291         68.13233626        -53.99101820
         -6.28757951          4.74590201
 Charge=             -0.0000 electrons
 Dipole moment (field-independent basis, Debye):
    X=            -27.6805    Y=             -9.1831    Z=              6.7305  Tot=             29.9306
 Quadrupole moment (field-independent basis, Debye-Ang):
   XX=           -435.8777   YY=           -184.2871   ZZ=           -172.6219
   XY=            -72.6198   XZ=             -8.4570   YZ=              6.3834
 Traceless Quadrupole moment (field-independent basis, Debye-Ang):
   XX=           -171.6154   YY=             79.9751   ZZ=             91.6403
   XY=            -72.6198   XZ=             -8.4570   YZ=              6.3834
 Octapole moment (field-independent basis, Debye-Ang**2):
  XXX=           -701.4846  YYY=           -159.6138  ZZZ=             37.7765  XYY=           -215.7202
  XXY=           -512.6907  XXZ=            221.1156  XZZ=              0.4994  YZZ=             -4.0697
  YYZ=             48.3256  XYZ=            -17.0510
 Hexadecapole moment (field-independent basis, Debye-Ang**3):
 XXXX=         -55276.6217 YYYY=          -2927.2681 ZZZZ=           -946.2146 XXXY=          -3894.9605
 XXXZ=          -1708.6193 YYYX=          -1066.9963 YYYZ=            114.1193 ZZZX=            -29.3613
 ZZZY=             10.0070 XXYY=          -6438.1912 XXZZ=          -5906.0169 YYZZ=           -610.0280
 XXYZ=            246.5101 YYXZ=            188.7455 ZZXY=             -3.1403
 N-N= 2.515542115967D+03 E-N=-7.993788149801D+03  KE= 1.265804399863D+03
 Entering OneElI...
 OneElI was handed   536356418 working-precision words.
 Calculate electrostatic properties
    NBasis =   500  MinDer = 0  MaxDer = 0
    NGrid  =    55  NMatD  =   1
 Requested accuracy = 0.1000D-12
 PrtBox:  NBox=     2 Levels=  1 BoxLen=   29.89 SMaxX=       35.32
          Shift=           19.615483            7.223529            4.288344
 Box      1 Number                   0 centers from      1 to    134:
 Box      2 Number                   4 centers from    135 to    170:
 ShPair: Thresh= 1.00D-13 NBox=     2 BxSize= 2.99D+01 RnKept= 1.91D+01
         NSMCal=                14535 NSMKep=                7359
 PrmmSu-InSpLW:  IPartL=    0 NPrtUS=    4 NPrtUL=    1 DoSpLW=F IThBeg=    0 IThEnd=    3 NThAct=    4.
 PrSmSu:  IncTry=   512 NBBP=         404745 NTPThr=   100 NPartT=    4 Incr=         512 LDynOK=F GPUOK=F.
 PrsmSu:  NPrtUS=   4 ThrOK=T IAlg=2 LenDen=           0 ISkipM=0 DoSpLW=F IThBeg=    0 IThEnd=    3.
 Prism:   IPart=     0 DynPar=F LinDyn=F Incr=         512.
 PRISM was handed   133754780 working-precision words and  7359 shell-pairs
 PRISM was handed   133754780 working-precision words and  7359 shell-pairs
 PRISM was handed   133754780 working-precision words and  7359 shell-pairs
 PRISM was handed   133754780 working-precision words and  7359 shell-pairs
 IPart=  0 NShTot=      102190 NBatch=        1858 AvBLen=        55.0
 PrsmSu-ThDecC:  IPartSL=    0    0 NPrtUSL=    4    1 IThBeg=    0 IThEnd=    3 CPU=   -1 GPU=   -1 NThAct=    4.
 IPart=  3 NShTot=      100265 NBatch=        1823 AvBLen=        55.0
 PrsmSu-ThDecC:  IPartSL=    3    0 NPrtUSL=    4    1 IThBeg=    0 IThEnd=    3 CPU=   -1 GPU=   -1 NThAct=    3.
 IPart=  2 NShTot=      100705 NBatch=        1831 AvBLen=        55.0
 PrsmSu-ThDecC:  IPartSL=    2    0 NPrtUSL=    4    1 IThBeg=    0 IThEnd=    3 CPU=   -1 GPU=   -1 NThAct=    2.
 IPart=  1 NShTot=      101585 NBatch=        1847 AvBLen=        55.0
 PrsmSu-ThDecC:  IPartSL=    1    0 NPrtUSL=    4    1 IThBeg=    0 IThEnd=    3 CPU=   -1 GPU=   -1 NThAct=    1.
 PrSmSu:  NxtVal=           2049.
 --------------------------------------------------------
       Center         ----      EFG at Nuclei      ----
                      3XX-RR        3YY-RR        3ZZ-RR
 --------------------------------------------------------
     1   Atom       -0.011813      0.052697     -0.040883
     2   Atom        0.242474     -0.129713     -0.112762
     3   Atom       -0.039674      0.075028     -0.035353
     4   Atom       -0.133154      0.141494     -0.008340
     5   Atom        0.007278     -0.041498      0.034220
     6   Atom        0.125859     -0.113532     -0.012327
     7   Atom        0.076259      0.180213     -0.256473
     8   Atom       -0.037910      0.072885     -0.034976
     9   Atom       -0.144448      0.279588     -0.135140
    10   Atom        0.005072     -0.049952      0.044880
    11   Atom       -0.254715      0.209600      0.045115
    12   Atom        0.031154     -0.183312      0.152159
    13   Atom       -0.023014     -0.073875      0.096889
    14   Atom       -0.019722     -0.057559      0.077282
    15   Atom        0.103984      0.023460     -0.127444
    16   Atom        0.116898      0.041075     -0.157973
    17   Atom        0.063142      0.100386     -0.163528
    18   Atom       -0.331350     -0.361484      0.692834
    19   Atom       -0.020267      0.057867     -0.037599
    20   Atom       -0.786570      0.840345     -0.053774
    21   Atom       -0.419938      0.709718     -0.289780
    22   Atom        0.052673     -0.033417     -0.019256
    23   Atom        0.044402     -0.192595      0.148193
    24   Atom       -0.530854     -0.606393      1.137247
    25   Atom       -0.068498      0.169399     -0.100901
    26   Atom        0.075642      0.023190     -0.098832
    27   Atom        0.102340      0.037249     -0.139590
    28   Atom       -0.054869      0.093579     -0.038710
    29   Atom        0.208709     -0.124034     -0.084675
    30   Atom        0.688359     -0.437692     -0.250666
    31   Atom        0.041956     -0.212629      0.170672
    32   Atom        0.140388      0.106584     -0.246972
    33   Atom        0.027177     -0.165974      0.138796
    34   Atom       -0.182145      0.136803      0.045342
    35   Atom        0.011076     -0.141226      0.130149
    36   Atom        0.055091     -0.196674      0.141583
    37   Atom       -0.143411      0.132519      0.010892
    38   Atom        0.112278      0.115766     -0.228043
    39   Atom        0.070643     -0.208348      0.137705
    40   Atom        0.118407      0.126153     -0.244560
    41   Atom        0.007876     -0.125748      0.117872
    42   Atom        0.008944     -0.117922      0.108978
    43   Atom        0.114385      0.132731     -0.247116
    44   Atom        0.109720      0.135653     -0.245372
    45   Atom        0.013270     -0.130939      0.117668
    46   Atom       -0.017955     -0.117028      0.134983
    47   Atom       -0.013750     -0.119492      0.133242
    48   Atom       -0.151747      0.040644      0.111103
    49   Atom       -0.038532     -0.049218      0.087751
    50   Atom       -0.147535      0.035309      0.112226
    51   Atom        0.005867     -0.127143      0.121275
    52   Atom        0.121514      0.125531     -0.247045
    53   Atom        0.087222     -0.106888      0.019666
    54   Atom        0.092925     -0.107209      0.014284
    55   Atom        0.083322      0.089782     -0.173104
 --------------------------------------------------------
                        XY            XZ            YZ
 --------------------------------------------------------
     1   Atom       -0.022722      0.023986     -0.025649
     2   Atom        0.003859      0.126880     -0.004269
     3   Atom        0.011135     -0.001539     -0.016437
     4   Atom       -0.046225     -0.033167     -0.038798
     5   Atom        0.031142      0.031334     -0.060184
     6   Atom       -0.026129      0.054949      0.009629
     7   Atom        0.017992      0.121455     -0.084772
     8   Atom        0.040632     -0.027374      0.065695
     9   Atom        0.032002     -0.004356     -0.058567
    10   Atom        0.062640      0.080804     -0.054851
    11   Atom       -0.026218     -0.268156      0.006349
    12   Atom       -0.246026      0.042142      0.112525
    13   Atom       -0.156353     -0.028779      0.068562
    14   Atom        0.151460     -0.018776     -0.066975
    15   Atom       -0.040600      0.067834      0.080821
    16   Atom       -0.081599      0.099414      0.158943
    17   Atom        0.047727      0.076914     -0.039006
    18   Atom        0.018226     -0.394426      0.236905
    19   Atom       -0.015931      0.012504     -0.023892
    20   Atom       -1.193736      0.025996     -0.571053
    21   Atom        0.027870     -0.042840     -0.158020
    22   Atom       -0.007077      0.039224     -0.007738
    23   Atom        0.235205      0.048179     -0.122165
    24   Atom        0.005059     -0.123785     -0.021257
    25   Atom       -0.042348     -0.018315      0.161834
    26   Atom       -0.026188      0.097889      0.088671
    27   Atom       -0.043380      0.120306      0.172675
    28   Atom       -0.032974     -0.007048      0.099976
    29   Atom        0.001455      0.113536      0.000226
    30   Atom        0.018435      0.367522     -0.044119
    31   Atom       -0.191782     -0.005602      0.012091
    32   Atom        0.001120      0.005305      0.105304
    33   Atom       -0.182121      0.024033      0.030888
    34   Atom        0.083946     -0.162409      0.044350
    35   Atom       -0.185975     -0.009044     -0.017237
    36   Atom       -0.160106     -0.003190     -0.017989
    37   Atom        0.019250     -0.184492      0.009308
    38   Atom       -0.019485      0.052066      0.104589
    39   Atom       -0.132196     -0.005572      0.016584
    40   Atom       -0.012920      0.084489      0.005078
    41   Atom        0.166712      0.055618     -0.074048
    42   Atom        0.166951      0.061961     -0.091603
    43   Atom       -0.007941      0.083797      0.025952
    44   Atom        0.001220      0.089610     -0.003921
    45   Atom       -0.170654      0.043944      0.073853
    46   Atom        0.210766      0.050990     -0.087960
    47   Atom        0.207852      0.054823     -0.085027
    48   Atom        0.180096     -0.133930      0.082787
    49   Atom        0.127279     -0.077984      0.074819
    50   Atom        0.182453     -0.135552      0.083596
    51   Atom       -0.168868      0.052782      0.068289
    52   Atom        0.010053      0.079754      0.006607
    53   Atom       -0.115573     -0.091063     -0.201729
    54   Atom       -0.111668     -0.090326     -0.197423
    55   Atom       -0.000394      0.041141      0.003691
 --------------------------------------------------------


 ---------------------------------------------------------------------------------
              Nuclear Quadrupole Coupling Constant in Principal Axis System
 ---------------------------------------------------------------------------------

       Atom             a.u.   MegaHertz   Gauss  10(-4) cm-1        Axes

              Baa    -0.5309     2.550     0.910     0.850  0.7438 -0.5694  0.3500
    18 N(14)  Bbb    -0.3353     1.610     0.575     0.537  0.5945  0.8030  0.0430
              Bcc     0.8662    -4.160    -1.484    -1.388 -0.3055  0.1760  0.9358
 
              Baa    -0.4331     2.080     0.742     0.694  0.9520  0.0190  0.3055
    21 N(14)  Bbb    -0.3020     1.450     0.518     0.484 -0.3046  0.1552  0.9397
              Bcc     0.7351    -3.531    -1.260    -1.178  0.0295  0.9877 -0.1535
 
              Baa    -0.0398     0.191     0.068     0.064 -0.2700  0.6086  0.7461
    22 N(14)  Bbb    -0.0310     0.149     0.053     0.050  0.3145  0.7881 -0.5291
              Bcc     0.0708    -0.340    -0.121    -0.113  0.9100 -0.0918  0.4042
 
              Baa    -0.6068     2.914     1.040     0.972 -0.0528  0.9986  0.0084
    24 N(14)  Bbb    -0.5398     2.593     0.925     0.865  0.9959  0.0520  0.0742
              Bcc     1.1466    -5.507    -1.965    -1.837 -0.0736 -0.0123  0.9972
 
              Baa    -0.4640     2.228     0.795     0.743 -0.1593  0.8758  0.4556
    30 N(14)  Bbb    -0.3511     1.686     0.602     0.562 -0.2843 -0.4826  0.8284
              Bcc     0.8151    -3.915    -1.397    -1.306  0.9454  0.0024  0.3259
 

 ---------------------------------------------------------------------------------

 No NMR shielding tensors so no spin-rotation constants.
 Leave Link  601 at Sun Mar 30 17:11:57 2025, MaxMem=   536870912 cpu:               1.9 elap:               0.7
 FitSet:  NAtFit=    55 NAtPot=    55 NAtFrz=     0 MDM=    59 TotChg=   0.00000
 Merz-Kollman atomic radii used.
 Atom Element Radius
    1     6    1.50
    2     6    1.50
    3     6    1.50
    4     6    1.50
    5     6    1.50
    6     6    1.50
    7     6    1.50
    8     6    1.50
    9     6    1.50
   10     6    1.50
   11     6    1.50
   12     6    1.50
   13     6    1.50
   14     6    1.50
   15     6    1.50
   16     6    1.50
   17     6    1.50
   18     7    1.50
   19     6    1.50
   20     8    1.40
   21     7    1.50
   22     7    1.50
   23     6    1.50
   24     7    1.50
   25     6    1.50
   26     6    1.50
   27     6    1.50
   28     6    1.50
   29     6    1.50
   30     7    1.50
   31     1    1.20
   32     1    1.20
   33     1    1.20
   34     1    1.20
   35     1    1.20
   36     1    1.20
   37     1    1.20
   38     1    1.20
   39     1    1.20
   40     1    1.20
   41     1    1.20
   42     1    1.20
   43     1    1.20
   44     1    1.20
   45     1    1.20
   46     1    1.20
   47     1    1.20
   48     1    1.20
   49     1    1.20
   50     1    1.20
   51     1    1.20
   52     1    1.20
   53     1    1.20
   54     1    1.20
   55     1    1.20
 Generate VDW surfaces: Layer= 4 Dens= 6 Start= 1.400 Inc= 0.200

 **********************************************************************

            Electrostatic Properties Using The SCF Density.

 **********************************************************************

       Atomic Center    1 is at   4.741874 -0.646342 -0.555209
       Atomic Center    2 is at   5.893019 -1.346919 -0.049873
       Atomic Center    3 is at   3.689405 -1.662398 -0.705723
       Atomic Center    4 is at   4.251020 -2.872132 -0.292727
       Atomic Center    5 is at   2.264724 -1.466214 -1.210331
       Atomic Center    6 is at   6.014297  1.450304 -0.530039
       Atomic Center    7 is at   7.156485  0.741846 -0.035596
       Atomic Center    8 is at   1.512310 -0.373811 -0.424255
       Atomic Center    9 is at   6.095871  2.864267 -0.753553
       Atomic Center   10 is at   1.186830 -0.857849  0.993588
       Atomic Center   11 is at   0.214957  0.119728  1.675538
       Atomic Center   12 is at  -1.870406 -1.110434  1.300177
       Atomic Center   13 is at  -3.178085  1.381209  0.541985
       Atomic Center   14 is at  -3.163509 -1.105554  0.475995
       Atomic Center   15 is at  -5.788002 -0.926607 -0.510051
       Atomic Center   16 is at  -7.464243  1.260457  0.134799
       Atomic Center   17 is at   4.810445  0.753642 -0.792343
       Atomic Center   18 is at   5.550973 -2.672543  0.090669
       Atomic Center   19 is at   7.092105 -0.638659  0.200525
       Atomic Center   20 is at   8.308666  1.412015  0.209324
       Atomic Center   21 is at   6.168794  3.986945 -0.906028
       Atomic Center   22 is at  -1.097084  0.122114  0.996518
       Atomic Center   23 is at  -1.863676  1.347111  1.348577
       Atomic Center   24 is at  -3.944693  0.127480  0.799815
       Atomic Center   25 is at  -5.281242  0.142800  0.297660
       Atomic Center   26 is at  -6.145787  1.237874  0.609992
       Atomic Center   27 is at  -7.104307 -0.902424 -0.982113
       Atomic Center   28 is at  -7.954994  0.189673 -0.662774
       Atomic Center   29 is at  -9.305028  0.200696 -1.137512
       Atomic Center   30 is at -10.380067  0.189714 -1.499701
       Atomic Center   31 is at   3.738054 -3.822527 -0.278111
       Atomic Center   32 is at   2.288410 -1.169436 -2.269294
       Atomic Center   33 is at   1.705825 -2.407890 -1.105893
       Atomic Center   34 is at   0.578182 -0.133286 -0.953000
       Atomic Center   35 is at   2.144133  0.524926 -0.368922
       Atomic Center   36 is at   0.721552 -1.853311  0.943398
       Atomic Center   37 is at   2.113721 -0.915618  1.583162
       Atomic Center   38 is at   0.068966 -0.179882  2.723826
       Atomic Center   39 is at   0.632543  1.136735  1.639615
       Atomic Center   40 is at  -2.118489 -1.137717  2.371498
       Atomic Center   41 is at  -1.272839 -1.996458  1.039561
       Atomic Center   42 is at  -3.776465  2.250276  0.852744
       Atomic Center   43 is at  -2.947998  1.459176 -0.530820
       Atomic Center   44 is at  -2.915376 -1.115869 -0.595570
       Atomic Center   45 is at  -3.759178 -1.996767  0.722966
       Atomic Center   46 is at  -5.146742 -1.760048 -0.756977
       Atomic Center   47 is at  -8.108860  2.092949  0.375256
       Atomic Center   48 is at   3.948379  1.283171 -1.170414
       Atomic Center   49 is at   6.290616 -3.394428  0.467228
       Atomic Center   50 is at   7.959189 -1.162266  0.574041
       Atomic Center   51 is at  -1.263106  2.236944  1.108681
       Atomic Center   52 is at  -2.093645  1.339129  2.424225
       Atomic Center   53 is at  -5.779931  2.053272  1.216092
       Atomic Center   54 is at  -7.474156 -1.714925 -1.589503
       Atomic Center   55 is at  -0.911939  0.130183 -0.087717
      ESP Fit Center   56 is at   4.946719 -0.291540  1.504440
      ESP Fit Center   57 is at   4.537029 -0.291540  1.504440
      ESP Fit Center   58 is at   4.332184 -0.646342  1.504440
      ESP Fit Center   59 is at   5.143691  0.049627  1.384938
      ESP Fit Center   60 is at   4.741874  0.157293  1.384938
      ESP Fit Center   61 is at   4.340056  0.049627  1.384938
      ESP Fit Center   62 is at   4.045905 -0.244524  1.384938
      ESP Fit Center   63 is at   3.938239 -0.646342  1.384938
      ESP Fit Center   64 is at   4.045905 -1.048159  1.384938
      ESP Fit Center   65 is at   4.340056 -1.342310  1.384938
      ESP Fit Center   66 is at   4.038781  0.284703  1.190877
      ESP Fit Center   67 is at   3.749928 -0.032155  1.190877
      ESP Fit Center   68 is at   3.492676  0.156469  0.929715
      ESP Fit Center   69 is at   6.226798 -0.646342 -2.040133
      ESP Fit Center   70 is at   5.358734 -1.997076 -2.040133
      ESP Fit Center   71 is at   5.908571 -0.646342 -2.301295
      ESP Fit Center   72 is at   5.261916 -1.690727 -2.301295
      ESP Fit Center   73 is at   5.604074 -1.432341 -2.301295
      ESP Fit Center   74 is at   5.829787 -1.067802 -2.301295
      ESP Fit Center   75 is at   5.545509 -0.646342 -2.495356
      ESP Fit Center   76 is at   4.045905 -0.244524 -2.495356
      ESP Fit Center   77 is at   5.143691 -1.342310 -2.495356
      ESP Fit Center   78 is at   5.437842 -1.048159 -2.495356
      ESP Fit Center   79 is at   5.151563 -0.646342 -2.614858
      ESP Fit Center   80 is at   4.946719 -0.291540 -2.614858
      ESP Fit Center   81 is at   4.537029 -0.291540 -2.614858
      ESP Fit Center   82 is at   4.332184 -0.646342 -2.614858
      ESP Fit Center   83 is at   4.537029 -1.001143 -2.614858
      ESP Fit Center   84 is at   4.946719 -1.001143 -2.614858
      ESP Fit Center   85 is at   4.741874 -0.646342 -2.655209
      ESP Fit Center   86 is at   5.893019 -1.346919  2.050127
      ESP Fit Center   87 is at   5.688174 -0.992117  2.009777
      ESP Fit Center   88 is at   5.483329 -1.346919  2.009777
      ESP Fit Center   89 is at   5.688174 -1.701721  2.009777
      ESP Fit Center   90 is at   6.097864 -1.701721  2.009777
      ESP Fit Center   91 is at   5.491201 -0.650950  1.890275
      ESP Fit Center   92 is at   5.197051 -0.945101  1.890275
      ESP Fit Center   93 is at   5.089384 -1.346919  1.890275
      ESP Fit Center   94 is at   5.573737 -0.224759  1.696214
      ESP Fit Center   95 is at   5.189927 -0.415874  1.696214
      ESP Fit Center   96 is at   4.901073 -0.732732  1.696214
      ESP Fit Center   97 is at   4.746187 -1.132539  1.696214
      ESP Fit Center   98 is at   4.746187 -1.561299  1.696214
      ESP Fit Center   99 is at   5.276159  0.003816  1.435052
      ESP Fit Center  100 is at   4.408095 -1.346919  1.435052
      ESP Fit Center  101 is at   7.437557 -2.521046 -0.853508
      ESP Fit Center  102 is at   7.199983 -2.504788 -1.216570
      ESP Fit Center  103 is at   7.439102 -2.158366 -1.216570
      ESP Fit Center  104 is at   6.865438 -2.469150 -1.534797
      ESP Fit Center  105 is at   7.142217 -2.149730 -1.534797
      ESP Fit Center  106 is at   7.059717 -1.346919 -1.795959
      ESP Fit Center  107 is at   6.413061 -0.302534 -1.795959
      ESP Fit Center  108 is at   6.755219 -2.132918 -1.795959
      ESP Fit Center  109 is at   6.980932 -1.768379 -1.795959
      ESP Fit Center  110 is at   6.696654 -1.346919 -1.990020
      ESP Fit Center  111 is at   6.588988 -0.945101 -1.990020
      ESP Fit Center  112 is at   6.294837 -0.650950 -1.990020
      ESP Fit Center  113 is at   5.491201 -2.042887 -1.990020
      ESP Fit Center  114 is at   5.893019 -2.150554 -1.990020
      ESP Fit Center  115 is at   6.294837 -2.042887 -1.990020
      ESP Fit Center  116 is at   6.588988 -1.748737 -1.990020
      ESP Fit Center  117 is at   6.302709 -1.346919 -2.109522
      ESP Fit Center  118 is at   5.688174 -1.701721 -2.109522
      ESP Fit Center  119 is at   6.097864 -1.701721 -2.109522
      ESP Fit Center  120 is at   3.689405 -1.662398  1.394277
      ESP Fit Center  121 is at   3.894250 -1.307596  1.353926
      ESP Fit Center  122 is at   5.114179 -2.080749 -2.190647
      ESP Fit Center  123 is at   4.856103 -1.662398 -2.451809
[...]
 **** Fit       0.015220
 **** Fit       0.017468
 **** Fit       0.013652
 **** Fit       0.003639
 **** Fit       0.002796
 **** Fit      -0.001672
 **** Fit      -0.001736
 **** Fit      -0.004050
 **** Fit      -0.015286
 **** Fit      -0.010012
 **** Fit      -0.007424
 **** Fit      -0.006248
 **** Fit      -0.006533
 **** Fit      -0.014224
 **** Fit      -0.011526
 **** Fit       0.008648
 **** Fit       0.010024
 **** Fit       0.007890
 **** Fit       0.006700
 **** Fit       0.007318
 **** Fit       0.009022
 **** Fit       0.010485
 **** Fit       0.011581
 **** Fit       0.009127
 **** Fit       0.006701
 **** Fit       0.005170
 **** Fit       0.004635
 **** Fit       0.004940
 **** Fit       0.005925
 **** Fit       0.007376
 **** Fit       0.009052
 **** Fit       0.010757
 **** Fit       0.012205
 **** Fit       0.012730
 **** Fit       0.005029
 **** Fit       0.003475
 **** Fit       0.002673
 **** Fit       0.002434
 **** Fit       0.002659
 **** Fit       0.003319
 **** Fit       0.004372
 **** Fit       0.005709
 **** Fit       0.007203
 **** Fit       0.008771
 **** Fit       0.010394
 **** Fit       0.012085
 **** Fit       0.013769
 **** Fit       0.000445
 **** Fit       0.000128
 **** Fit       0.000102
 **** Fit       0.000371
 **** Fit       0.000987
 **** Fit       0.001961
 **** Fit       0.003227
 **** Fit       0.004667
 **** Fit       0.006175
 **** Fit       0.007695
 **** Fit       0.009235
 **** Fit       0.010857
 **** Fit       0.012660
 **** Fit       0.014718
 **** Fit      -0.002333
 **** Fit      -0.002449
 **** Fit      -0.002405
 **** Fit      -0.002080
 **** Fit      -0.001371
 **** Fit      -0.000269
 **** Fit       0.001136
 **** Fit       0.002702
 **** Fit       0.004303
 **** Fit       0.005864
 **** Fit       0.007374
 **** Fit       0.008880
 **** Fit       0.010475
 **** Fit       0.012307
 **** Fit      -0.005087
 **** Fit      -0.005319
 **** Fit      -0.005382
 **** Fit      -0.005071
 **** Fit      -0.004268
 **** Fit      -0.002994
 **** Fit      -0.001388
 **** Fit       0.000368
 **** Fit       0.002123
 **** Fit       0.003786
 **** Fit       0.005329
 **** Fit       0.006776
 **** Fit       0.008190
 **** Fit       0.009675
 **** Fit       0.011382
 **** Fit      -0.008082
 **** Fit      -0.008738
 **** Fit      -0.009147
 **** Fit      -0.008965
 **** Fit      -0.008030
 **** Fit      -0.006424
 **** Fit      -0.004399
 **** Fit      -0.002230
 **** Fit      -0.000130
 **** Fit       0.001789
 **** Fit       0.003493
 **** Fit       0.005007
 **** Fit       0.006393
 **** Fit       0.007740
 **** Fit      -0.008060
 **** Fit      -0.005313
 **** Fit      -0.002750
 **** Fit      -0.000498
 **** Fit       0.001417
 **** Fit       0.003034
 **** Fit       0.004416
 **** Fit       0.005643
 **** Fit      -0.007075
 **** Fit      -0.004100
 **** Fit      -0.001659
 **** Fit       0.000302
 **** Fit       0.001866
 **** Fit      -0.004690
 **** Fit      -0.002224
 **** Fit       0.014793
 **** Fit       0.021742
 **** Fit       0.002036
 **** Fit       0.013805
 **** Fit       0.019198
 **** Fit       0.009778
 **** Fit       0.005810
 **** Fit       0.001931
 **** Fit      -0.001627
 **** Fit      -0.004818
 **** Fit      -0.007693
 **** Fit       0.007301
 **** Fit       0.013126
 **** Fit       0.017012
 **** Fit       0.019088
 **** Fit       0.018034
 **** Fit       0.008540
 **** Fit       0.004892
 **** Fit       0.001249
 **** Fit      -0.002111
 **** Fit      -0.005098
 **** Fit      -0.007717
 **** Fit      -0.009904
 **** Fit      -0.000222
 **** Fit       0.006063
 **** Fit       0.011057
 **** Fit       0.014192
 **** Fit       0.015522
 **** Fit       0.015379
 **** Fit       0.014068
 **** Fit       0.011733
 **** Fit       0.007213
 **** Fit       0.003524
 **** Fit      -0.000112
 **** Fit      -0.003151
 **** Fit      -0.005113
 **** Fit      -0.005067
 **** Fit      -0.001997
 **** Fit       0.003248
 **** Fit       0.008185
 **** Fit       0.011087
 **** Fit       0.011626
 **** Fit       0.010160
 **** Fit       0.005654
 **** Fit       0.001793
 **** Fit      -0.000561
 **** Fit       0.001245
 **** Fit       0.005801
 **** Fit       0.007762
 **** Fit       0.003720
 **** Fit       0.028299
 **** Fit       0.029059
 **** Fit       0.028086
 **** Fit       0.027202
 **** Fit       0.027321
 **** Fit       0.028299
 **** Fit       0.029154
 **** Fit       0.029606
 **** Fit       0.028732
 **** Fit       0.027634
 **** Fit       0.026573
 **** Fit       0.025833
 **** Fit       0.025654
 **** Fit       0.026113
 **** Fit       0.027045
 **** Fit       0.028109
 **** Fit       0.029087
 **** Fit       0.029806
 **** Fit       0.030013
 **** Fit       0.029942
 **** Fit       0.029074
 **** Fit       0.028035
 **** Fit       0.026919
 **** Fit       0.025818
 **** Fit       0.024855
 **** Fit       0.024174
 **** Fit       0.023885
 **** Fit       0.024035
 **** Fit       0.024651
 **** Fit       0.025642
 **** Fit       0.029587
 **** Fit       0.030308
 **** Fit       0.030654
 **** Fit       0.030514
 **** Fit       0.030062
 **** Fit       0.029099
 **** Fit       0.028025
 **** Fit       0.026889
 **** Fit       0.025721
 **** Fit       0.024564
 **** Fit       0.023492
 **** Fit       0.022621
 **** Fit       0.022067
 **** Fit       0.021871
 **** Fit       0.021983
 **** Fit       0.022451
 **** Fit       0.031168
 **** Fit       0.031234
 **** Fit       0.030821
 **** Fit       0.029959
 **** Fit       0.028825
 **** Fit       0.027646
 **** Fit       0.026445
 **** Fit       0.025222
 **** Fit       0.023979
 **** Fit       0.022738
 **** Fit       0.021562
 **** Fit       0.020571
 **** Fit       0.019926
 **** Fit       0.031710
 **** Fit       0.030972
 **** Fit       0.029605
 **** Fit       0.028266
 **** Fit       0.026965
 **** Fit       0.025698
 **** Fit       0.024439
 **** Fit       0.023165
 **** Fit       0.021861
 **** Fit       0.020539
 **** Fit       0.019253
 **** Fit       0.018123
 **** Fit       0.032110
 **** Fit       0.030934
 **** Fit       0.028945
 **** Fit       0.027279
 **** Fit       0.025764
 **** Fit       0.024354
 **** Fit       0.022991
 **** Fit       0.021625
 **** Fit       0.020219
 **** Fit       0.018754
 **** Fit       0.017248
 **** Fit       0.015777
 **** Fit       0.030767
 **** Fit       0.025851
 **** Fit       0.024131
 **** Fit       0.022596
 **** Fit       0.021153
 **** Fit       0.019726
 **** Fit       0.018257
 **** Fit       0.016702
 **** Fit       0.015040
 **** Fit       0.013288
 **** Fit       0.011543
 **** Fit       0.020206
 **** Fit       0.018685
 **** Fit       0.017192
 **** Fit       0.015647
 **** Fit       0.013987
 **** Fit       0.012161
 **** Fit       0.010133
 **** Fit       0.007464
 **** Fit       0.010705
 **** Fit       0.006946
 **** Fit       0.003724
 **** Fit       0.004195
 **** Fit       0.007971
 **** Fit       0.011115
 **** Fit       0.014272
 **** Fit       0.010593
 **** Fit       0.006279
 **** Fit       0.002481
 **** Fit      -0.000172
 **** Fit      -0.001007
 **** Fit       0.000576
 **** Fit       0.004281
 **** Fit       0.008644
 **** Fit       0.012231
 **** Fit       0.014696
 **** Fit       0.015721
 **** Fit       0.018631
 **** Fit       0.014465
 **** Fit       0.009748
 **** Fit       0.005357
 **** Fit       0.001521
 **** Fit      -0.001738
 **** Fit      -0.004306
 **** Fit      -0.005835
 **** Fit      -0.005791
 **** Fit      -0.003749
 **** Fit       0.000158
 **** Fit       0.005060
 **** Fit       0.009730
 **** Fit       0.013308
 **** Fit       0.015874
 **** Fit       0.018127
 **** Fit       0.020176
 **** Fit       0.020752
 **** Fit       0.018796
 **** Fit       0.012955
 **** Fit       0.007802
 **** Fit       0.003411
 **** Fit      -0.000405
 **** Fit      -0.003828
 **** Fit      -0.006926
 **** Fit      -0.009593
 **** Fit      -0.011489
 **** Fit      -0.012061
 **** Fit      -0.010727
 **** Fit      -0.007222
 **** Fit      -0.001917
 **** Fit       0.004219
 **** Fit       0.009964
 **** Fit       0.016023
 **** Fit       0.009694
 **** Fit       0.004626
 **** Fit       0.000396
 **** Fit      -0.003354
 **** Fit      -0.006876
 **** Fit      -0.010309
 **** Fit      -0.013650
 **** Fit      -0.016696
 **** Fit      -0.018979
 **** Fit      -0.019778
 **** Fit      -0.018316
 **** Fit      -0.014176
 **** Fit      -0.007667
 **** Fit       0.011406
 **** Fit       0.005605
 **** Fit       0.000999
 **** Fit      -0.002933
 **** Fit      -0.006554
 **** Fit      -0.010119
 **** Fit      -0.013806
 **** Fit      -0.017696
 **** Fit      -0.021735
 **** Fit      -0.025638
 **** Fit      -0.028791
 **** Fit       0.011111
 **** Fit       0.004700
 **** Fit      -0.000196
 **** Fit      -0.004283
 **** Fit      -0.008014
 **** Fit      -0.011717
 **** Fit      -0.015650
 **** Fit      -0.020023
 **** Fit      -0.024979
 **** Fit      -0.030526
 **** Fit       0.002884
 **** Fit      -0.002030
 **** Fit      -0.006087
 **** Fit      -0.009773
 **** Fit      -0.013441
 **** Fit      -0.017390
 **** Fit      -0.021907
 **** Fit      -0.027282
 **** Fit      -0.033803
 **** Fit      -0.009131
 **** Fit      -0.012681
 **** Fit      -0.016294
 **** Fit      -0.020292
 **** Fit      -0.025018
 **** Fit      -0.030888
 **** Fit       0.026938
 **** Fit       0.027415
 **** Fit       0.024375
 **** Fit       0.023822
 **** Fit       0.028107
 **** Fit       0.024958
 **** Fit       0.021943
 **** Fit       0.020025
 **** Fit       0.020338
 **** Fit       0.030899
 **** Fit       0.028876
 **** Fit       0.025879
 **** Fit       0.022715
 **** Fit       0.019518
 **** Fit       0.016850
 **** Fit       0.015517
 **** Fit       0.016224
 **** Fit       0.031710
 **** Fit       0.029499
 **** Fit       0.026492
 **** Fit       0.023426
 **** Fit       0.019999
 **** Fit       0.016367
 **** Fit       0.013061
 **** Fit       0.010745
 **** Fit       0.010207
 **** Fit       0.012000
 **** Fit       0.035559
 **** Fit       0.032591
 **** Fit       0.003332
 **** Fit       0.004574
 **** Fit       0.033342
 **** Fit       0.031547
 **** Fit       0.032661
 **** Fit       0.031429
 **** Fit       0.030552
 **** Fit       0.030746
 **** Fit       0.031785
 **** Fit       0.032839
 **** Fit       0.034118
 **** Fit       0.032902
 **** Fit       0.029899
 **** Fit       0.030247
 **** Fit       0.030957
 **** Fit       0.032088
 **** Fit       0.033410
 **** Fit       0.034446
 **** Fit       0.034729
 **** Fit       0.035965
 **** Fit       0.029862
 **** Fit       0.030054
 **** Fit       0.030451
 **** Fit       0.031228
 **** Fit       0.032412
 **** Fit       0.033847
 **** Fit       0.035278
 **** Fit       0.036418
 **** Fit       0.036984
 **** Fit       0.036804
 **** Fit       0.038269
 **** Fit       0.030237
 **** Fit       0.030155
 **** Fit       0.030368
 **** Fit       0.031056
 **** Fit       0.032242
 **** Fit       0.033788
 **** Fit       0.035498
 **** Fit       0.037182
 **** Fit       0.038644
 **** Fit       0.039635
 **** Fit       0.039903
 **** Fit       0.039375
 **** Fit       0.030308
 **** Fit       0.030045
 **** Fit       0.030389
 **** Fit       0.031425
 **** Fit       0.033012
 **** Fit       0.034924
 **** Fit       0.036975
 **** Fit       0.039037
 **** Fit       0.040998
 **** Fit       0.029577
 **** Fit       0.029439
 **** Fit       0.030279
 **** Fit       0.031903
 **** Fit       0.034002
 **** Fit       0.036326
 **** Fit       0.038733
 **** Fit       0.041176
 **** Fit       0.028720
 **** Fit       0.030836
 **** Fit       0.033533
 **** Fit       0.036441
 **** Fit       0.039375
 **** Fit       0.042311
 **** Fit       0.028945
 **** Fit       0.032658
 **** Fit       0.036443
 **** Fit       0.040074
 **** Fit       0.043523
 **** Fit       0.016913
 **** Fit       0.018599
 **** Fit       0.016831
 **** Fit       0.015300
 **** Fit       0.015628
 **** Fit       0.016891
 **** Fit       0.018343
 **** Fit       0.020711
 **** Fit       0.019241
 **** Fit       0.016702
 **** Fit       0.014427
 **** Fit       0.013506
 **** Fit       0.013890
 **** Fit       0.014771
 **** Fit       0.015665
 **** Fit       0.016726
 **** Fit       0.018096
 **** Fit       0.019579
 **** Fit       0.020678
 **** Fit       0.023312
 **** Fit       0.022213
 **** Fit       0.019806
 **** Fit       0.016618
 **** Fit       0.013685
 **** Fit       0.011887
 **** Fit       0.011511
 **** Fit       0.012271
 **** Fit       0.013477
 **** Fit       0.014445
 **** Fit       0.015036
 **** Fit       0.015578
 **** Fit       0.016385
 **** Fit       0.017548
 **** Fit       0.019001
 **** Fit       0.020595
 **** Fit       0.022097
 **** Fit       0.023152
 **** Fit       0.026471
 **** Fit       0.012306
 **** Fit       0.015018
 **** Fit       0.015111
 **** Fit       0.015584
 **** Fit       0.016483
 **** Fit       0.017750
 **** Fit       0.019299
 **** Fit       0.021043
 **** Fit       0.022875
 **** Fit       0.024613
 **** Fit       0.025946
 **** Fit       0.014673
 **** Fit       0.014574
 **** Fit       0.015053
 **** Fit       0.016005
 **** Fit       0.017325
 **** Fit       0.018930
 **** Fit       0.020767
 **** Fit       0.022800
 **** Fit       0.024981
 **** Fit       0.027173
 **** Fit       0.029059
 **** Fit       0.013698
 **** Fit       0.013664
 **** Fit       0.014247
 **** Fit       0.015275
 **** Fit       0.016630
 **** Fit       0.018237
 **** Fit       0.020060
 **** Fit       0.022095
 **** Fit       0.024369
 **** Fit       0.026919
 **** Fit       0.012633
 **** Fit       0.013577
 **** Fit       0.014882
 **** Fit       0.016443
 **** Fit       0.018197
 **** Fit       0.020119
 **** Fit       0.022231
 **** Fit       0.024625
 **** Fit       0.011584
 **** Fit       0.012854
 **** Fit       0.014363
 **** Fit       0.016018
 **** Fit       0.017753
 **** Fit       0.019526
 **** Fit       0.021337
 **** Fit       0.013203
 **** Fit       0.014825
 **** Fit       0.016342
 **** Fit       0.017608
 **** Fit      -0.019145
 **** Fit      -0.017530
 **** Fit      -0.016790
 **** Fit      -0.017018
 **** Fit      -0.022761
 **** Fit      -0.019719
 **** Fit      -0.017486
 **** Fit      -0.016067
 **** Fit      -0.015483
 **** Fit      -0.015765
 **** Fit      -0.016935
 **** Fit      -0.027548
 **** Fit      -0.023271
 **** Fit      -0.019811
 **** Fit      -0.017180
 **** Fit      -0.015353
 **** Fit      -0.014309
 **** Fit      -0.014029
 **** Fit      -0.014472
 **** Fit      -0.015521
 **** Fit      -0.023284
 **** Fit      -0.019736
 **** Fit      -0.016888
 **** Fit      -0.014772
 **** Fit      -0.013366
 **** Fit      -0.012634
 **** Fit      -0.012511
 **** Fit      -0.012868
 **** Fit      -0.013477
 **** Fit      -0.013983
 **** Fit      -0.013984
 **** Fit      -0.013203
 **** Fit      -0.011678
 **** Fit      -0.009743
 **** Fit      -0.007820
 **** Fit      -0.024023
 **** Fit      -0.021102
 **** Fit      -0.018009
 **** Fit      -0.015344
 **** Fit      -0.013303
 **** Fit      -0.011921
 **** Fit      -0.011155
 **** Fit      -0.010896
 **** Fit      -0.010949
 **** Fit      -0.011026
 **** Fit      -0.010806
 **** Fit      -0.010070
 **** Fit      -0.008840
 **** Fit      -0.007348
 **** Fit      -0.005881
 **** Fit      -0.017974
 **** Fit      -0.019134
 **** Fit      -0.018012
 **** Fit      -0.015868
 **** Fit      -0.013652
 **** Fit      -0.011818
 **** Fit      -0.010513
 **** Fit      -0.009721
 **** Fit      -0.009303
 **** Fit      -0.009025
 **** Fit      -0.008617
 **** Fit      -0.007890
 **** Fit      -0.006846
 **** Fit      -0.005654
 **** Fit      -0.004519
 **** Fit      -0.003570
 **** Fit      -0.011278
 **** Fit      -0.013728
 **** Fit      -0.014199
 **** Fit      -0.013119
 **** Fit      -0.011483
 **** Fit      -0.009979
 **** Fit      -0.008871
 **** Fit      -0.008127
 **** Fit      -0.007540
 **** Fit      -0.006865
 **** Fit      -0.005985
 **** Fit      -0.004986
 **** Fit      -0.004066
 **** Fit      -0.003406
 **** Fit      -0.003177
 **** Fit      -0.003631
 **** Fit      -0.005136
 **** Fit      -0.007894
 **** Fit      -0.008957
 **** Fit      -0.010547
 **** Fit      -0.010351
 **** Fit      -0.009165
 **** Fit      -0.007941
 **** Fit      -0.006970
 **** Fit      -0.006089
 **** Fit      -0.005158
 **** Fit      -0.004349
 **** Fit      -0.004026
 **** Fit      -0.004616
 **** Fit      -0.006435
 **** Fit      -0.007313
 **** Fit      -0.008066
 **** Fit      -0.007105
 **** Fit      -0.005909
 **** Fit      -0.005082
 **** Fit      -0.005499
 **** Fit      -0.006311
 -----------------------------------------------------------------
 Leave Link  602 at Sun Mar 30 20:09:17 2025, MaxMem=   536870912 cpu:               5.2 elap:               1.3

 Test job not archived.
 1\1\GINC-LOCALHOST\FOpt\RB3LYP\6-31G(d)\C24H25N5O1\DDDC\30-Mar-2025\0\
 \#B3LYP/6-31G* em=gd3bj pop=MK iop(6/33=2,6/42=6) opt\\remark line goe
 s here\\0,1\C,2.4140356518,33.6438211646,24.774286444\C,1.7450075642,3
 3.0436060995,23.6548844227\C,1.632711507,33.3549477686,25.9580004468\C
 ,0.5248952328,32.6697545653,25.5420474711\C,2.1145242098,33.5375269932
 ,27.3630948224\C,4.2330875077,34.2013356481,23.2785458198\C,3.60049060
 96,33.522852705,22.1263131321\C,3.4804649293,32.8571463318,27.61416005
 03\C,5.5483976609,34.7102642111,23.107986386\C,3.5497625474,31.3415660
 97,27.344469664\C,3.5369763274,30.813931954,25.9028080133\C,5.99141618
 06,31.3448447094,25.584674584\C,5.7197208091,30.9938063282,22.73066251
 93\C,7.0120206406,31.8565754594,24.5778665722\C,8.7868723376,32.357105
 1968,22.3538136788\C,9.6064447339,30.1002131901,20.9107689295\C,3.6458
 613627,34.2632613313,24.5527271723\N,0.5862292738,32.4676008843,24.160
 2557576\C,2.2777347444,32.9989707123,22.379659276\O,4.2181748111,33.35
 63177421,21.0499819672\N,6.6599326572,35.0632949717,23.04314271\N,4.61
 64107068,31.3390438742,24.9790958504\C,4.6154541091,30.5530365759,23.6
 826561803\N,7.0215477114,30.9731529667,23.4171113716\C,8.1236377296,31
 .1343875472,22.5250932496\C,8.540329895,30.0127411438,21.7934751089\C,
 9.8662781873,32.4460071323,21.4801718971\C,10.2858941525,31.3209660616
 ,20.7550422841\C,11.4005283269,31.4101250025,19.8612349218\N,12.309764
 2202,31.4742173171,19.1382258032\H,-0.2898808129,32.2570509037,26.1209
 720647\H,2.2255516396,34.6021552965,27.6116090973\H,1.3759064214,33.12
 99977829,28.0650658946\H,3.7495451519,33.0075878646,28.6667930745\H,4.
 252564304,33.3756152295,27.035251416\H,4.4305093685,30.934990423,27.85
 56738759\H,2.6865736048,30.8580661861,27.8211671418\H,3.6779423397,29.
 7287139174,25.9268896201\H,2.5952398199,31.0318806765,25.4023027941\H,
 6.2122802961,30.3151649522,25.8791492268\H,5.9623424949,31.9824752567,
 26.4682559504\H,5.7402117339,30.26663169,21.913972803\H,5.4975912144,3
 1.9664976725,22.2728827892\H,6.7932331053,32.9049326759,24.3296186693\
 H,7.9975508408,31.8283949276,25.0518905666\H,8.4366629896,33.252599979
 3,22.8563000109\H,9.9323095363,29.2297042312,20.3514337097\H,4.1685454
 603,34.7797172118,25.3541484584\H,-0.1742612384,32.130294565,23.591278
 9177\H,1.7642899777,32.5174365644,21.5524417487\H,3.6334989321,30.7019
 497937,23.2311687992\H,4.7522313981,29.5073324124,23.9730734194\H,8.02
 71935631,29.0678148465,21.9439883893\H,10.3737977729,33.3944439792,21.
 3405422121\H,4.3681637481,32.3211292763,24.7385728439\\Version=ES64L-G
 16RevB.01\State=1-A\HF=-1278.6511935\RMSD=6.837e-09\RMSF=3.124e-06\Dip
 ole=-2.9995454,-3.283885,4.8890258\Quadrupole=-7.8625055,8.4163539,-0.
 5538484,6.9562861,15.0944119,3.4070358\PG=C01 [X(C24H25N5O1)]\\@


 STEINBACH'S GUIDELINES FOR SYSTEMS PROGRAMMING:
 NEVER TEST FOR AN ERROR CONDITION YOU DON'T KNOW HOW
 TO HANDLE.
 Job cpu time:       0 days 12 hours 18 minutes 23.8 seconds.
 Elapsed time:       0 days  3 hours  4 minutes 43.9 seconds.
 File lengths (MBytes):  RWF=    160 Int=      0 D2E=      0 Chk=     21 Scr=      1
 Normal termination of Gaussian 16 at Sun Mar 30 20:09:18 2025.
